+ 1.165887 0 2 exp 800 ------- 1 0.0 5.0 0 0
- 1.165887 0 2 exp 800 ------- 1 0.0 5.0 0 0
+ 1.173887 0 2 exp 800 ------- 1 0.0 5.0 1 1
- 1.176127 0 2 exp 800 ------- 1 0.0 5.0 1 1
r 1.179127 0 2 exp 800 ------- 1 0.0 5.0 0 0
+ 1.179127 2 1 exp 800 ------- 1 0.0 5.0 0 0
- 1.179127 2 1 exp 800 ------- 1 0.0 5.0 0 0
+ 1.181887 0 2 exp 800 ------- 1 0.0 5.0 2 2
- 1.186367 0 2 exp 800 ------- 1 0.0 5.0 2 2
r 1.189367 0 2 exp 800 ------- 1 0.0 5.0 1 1
+ 1.189367 2 1 exp 800 ------- 1 0.0 5.0 1 1
+ 1.189887 0 2 exp 800 ------- 1 0.0 5.0 3 3
- 1.195793 2 1 exp 800 ------- 1 0.0 5.0 1 1
- 1.196607 0 2 exp 800 ------- 1 0.0 5.0 3 3
r 1.197793 2 1 exp 800 ------- 1 0.0 5.0 0 0
+ 1.197793 1 3 exp 800 ------- 1 0.0 5.0 0 0
- 1.197793 1 3 exp 800 ------- 1 0.0 5.0 0 0
+ 1.197887 0 2 exp 800 ------- 1 0.0 5.0 4 4
r 1.199607 0 2 exp 800 ------- 1 0.0 5.0 2 2
+ 1.199607 2 1 exp 800 ------- 1 0.0 5.0 2 2
+ 1.205887 0 2 exp 800 ------- 1 0.0 5.0 5 5
- 1.206847 0 2 exp 800 ------- 1 0.0 5.0 4 4
r 1.209847 0 2 exp 800 ------- 1 0.0 5.0 3 3
+ 1.209847 2 1 exp 800 ------- 1 0.0 5.0 3 3
- 1.21246 2 1 exp 800 ------- 1 0.0 5.0 2 2
+ 1.213887 0 2 exp 800 ------- 1 0.0 5.0 6 6
r 1.21446 2 1 exp 800 ------- 1 0.0 5.0 1 1
+ 1.21446 1 3 exp 800 ------- 1 0.0 5.0 1 1
- 1.217087 0 2 exp 800 ------- 1 0.0 5.0 5 5
r 1.220087 0 2 exp 800 ------- 1 0.0 5.0 4 4
+ 1.220087 2 1 exp 800 ------- 1 0.0 5.0 4 4
+ 1.221887 0 2 exp 800 ------- 1 0.0 5.0 7 7
- 1.222793 1 3 exp 800 ------- 1 0.0 5.0 1 1
r 1.223793 1 3 exp 800 ------- 1 0.0 5.0 0 0
+ 1.223793 3 5 exp 800 ------- 1 0.0 5.0 0 0
- 1.223793 3 5 exp 800 ------- 1 0.0 5.0 0 0
r 1.226804 3 5 exp 800 ------- 1 0.0 5.0 0 0
- 1.227327 0 2 exp 800 ------- 1 0.0 5.0 6 6
- 1.229127 2 1 exp 800 ------- 1 0.0 5.0 3 3
+ 1.229887 0 2 exp 800 ------- 1 0.0 5.0 8 8
r 1.230327 0 2 exp 800 ------- 1 0.0 5.0 5 5
+ 1.230327 2 1 exp 800 ------- 1 0.0 5.0 5 5
r 1.231127 2 1 exp 800 ------- 1 0.0 5.0 2 2
+ 1.231127 1 3 exp 800 ------- 1 0.0 5.0 2 2
- 1.237567 0 2 exp 800 ------- 1 0.0 5.0 7 7
+ 1.237887 0 2 exp 800 ------- 1 0.0 5.0 9 9
r 1.240567 0 2 exp 800 ------- 1 0.0 5.0 6 6
+ 1.240567 2 1 exp 800 ------- 1 0.0 5.0 6 6
- 1.245793 2 1 exp 800 ------- 1 0.0 5.0 4 4
+ 1.245887 0 2 exp 800 ------- 1 0.0 5.0 10 10
- 1.247793 1 3 exp 800 ------- 1 0.0 5.0 2 2
r 1.247793 2 1 exp 800 ------- 1 0.0 5.0 3 3
+ 1.247793 1 3 exp 800 ------- 1 0.0 5.0 3 3
- 1.247807 0 2 exp 800 ------- 1 0.0 5.0 8 8
r 1.248793 1 3 exp 800 ------- 1 0.0 5.0 1 1
+ 1.248793 3 5 exp 800 ------- 1 0.0 5.0 1 1
- 1.248793 3 5 exp 800 ------- 1 0.0 5.0 1 1
r 1.250807 0 2 exp 800 ------- 1 0.0 5.0 7 7
+ 1.250807 2 1 exp 800 ------- 1 0.0 5.0 7 7
r 1.251804 3 5 exp 800 ------- 1 0.0 5.0 1 1
+ 1.253887 0 2 exp 800 ------- 1 0.0 5.0 11 11
- 1.258047 0 2 exp 800 ------- 1 0.0 5.0 9 9
+ 1.258525 0 2 pareto 300 ------- 2 0.1 3.0 0 12
r 1.261047 0 2 exp 800 ------- 1 0.0 5.0 8 8
+ 1.261047 2 1 exp 800 ------- 1 0.0 5.0 8 8
+ 1.261887 0 2 exp 800 ------- 1 0.0 5.0 12 13
- 1.26246 2 1 exp 800 ------- 1 0.0 5.0 5 5
r 1.26446 2 1 exp 800 ------- 1 0.0 5.0 4 4
+ 1.26446 1 3 exp 800 ------- 1 0.0 5.0 4 4
- 1.268287 0 2 exp 800 ------- 1 0.0 5.0 10 10
+ 1.269887 0 2 exp 800 ------- 1 0.0 5.0 13 14
+ 1.270525 0 2 pareto 300 ------- 2 0.1 3.0 1 15
r 1.271287 0 2 exp 800 ------- 1 0.0 5.0 9 9
+ 1.271287 2 1 exp 800 ------- 1 0.0 5.0 9 9
- 1.272793 1 3 exp 800 ------- 1 0.0 5.0 3 3
r 1.273793 1 3 exp 800 ------- 1 0.0 5.0 2 2
+ 1.273793 3 5 exp 800 ------- 1 0.0 5.0 2 2
- 1.273793 3 5 exp 800 ------- 1 0.0 5.0 2 2
r 1.276804 3 5 exp 800 ------- 1 0.0 5.0 2 2
+ 1.277887 0 2 exp 800 ------- 1 0.0 5.0 14 16
- 1.278527 0 2 exp 800 ------- 1 0.0 5.0 11 11
- 1.279127 2 1 exp 800 ------- 1 0.0 5.0 6 6
r 1.281127 2 1 exp 800 ------- 1 0.0 5.0 5 5
+ 1.281127 1 3 exp 800 ------- 1 0.0 5.0 5 5
r 1.281527 0 2 exp 800 ------- 1 0.0 5.0 10 10
+ 1.281527 2 1 exp 800 ------- 1 0.0 5.0 10 10
+ 1.282525 0 2 pareto 300 ------- 2 0.1 3.0 2 17
+ 1.285887 0 2 exp 800 ------- 1 0.0 5.0 15 18
- 1.288767 0 2 pareto 300 ------- 2 0.1 3.0 0 12
r 1.291767 0 2 exp 800 ------- 1 0.0 5.0 11 11
+ 1.291767 2 1 exp 800 ------- 1 0.0 5.0 11 11
- 1.292607 0 2 exp 800 ------- 1 0.0 5.0 12 13
+ 1.294525 0 2 pareto 300 ------- 2 0.1 3.0 3 19
r 1.295607 0 2 pareto 300 ------- 2 0.1 3.0 0 12
+ 1.295607 2 1 pareto 300 ------- 2 0.1 3.0 0 12
- 1.295793 2 1 exp 800 ------- 1 0.0 5.0 7 7
- 1.297793 1 3 exp 800 ------- 1 0.0 5.0 4 4
r 1.297793 2 1 exp 800 ------- 1 0.0 5.0 6 6
+ 1.297793 1 3 exp 800 ------- 1 0.0 5.0 6 6
r 1.298793 1 3 exp 800 ------- 1 0.0 5.0 3 3
+ 1.298793 3 5 exp 800 ------- 1 0.0 5.0 3 3
- 1.298793 3 5 exp 800 ------- 1 0.0 5.0 3 3
r 1.301804 3 5 exp 800 ------- 1 0.0 5.0 3 3
- 1.302847 0 2 exp 800 ------- 1 0.0 5.0 13 14
r 1.305847 0 2 exp 800 ------- 1 0.0 5.0 12 13
+ 1.305847 2 1 exp 800 ------- 1 0.0 5.0 12 13
+ 1.306525 0 2 pareto 300 ------- 2 0.1 3.0 4 20
+ 1.30846 0 2 exp 800 ------- 1 0.0 5.0 16 21
- 1.31246 2 1 exp 800 ------- 1 0.0 5.0 8 8
- 1.313087 0 2 pareto 300 ------- 2 0.1 3.0 1 15
r 1.31446 2 1 exp 800 ------- 1 0.0 5.0 7 7
+ 1.31446 1 3 exp 800 ------- 1 0.0 5.0 7 7
r 1.316087 0 2 exp 800 ------- 1 0.0 5.0 13 14
+ 1.316087 2 1 exp 800 ------- 1 0.0 5.0 13 14
+ 1.31646 0 2 exp 800 ------- 1 0.0 5.0 17 22
- 1.316927 0 2 exp 800 ------- 1 0.0 5.0 14 16
+ 1.318525 0 2 pareto 300 ------- 2 0.1 3.0 5 23
r 1.319927 0 2 pareto 300 ------- 2 0.1 3.0 1 15
+ 1.319927 2 1 pareto 300 ------- 2 0.1 3.0 1 15
- 1.322793 1 3 exp 800 ------- 1 0.0 5.0 5 5
r 1.323793 1 3 exp 800 ------- 1 0.0 5.0 4 4
+ 1.323793 3 5 exp 800 ------- 1 0.0 5.0 4 4
- 1.323793 3 5 exp 800 ------- 1 0.0 5.0 4 4
+ 1.32446 0 2 exp 800 ------- 1 0.0 5.0 18 24
r 1.326804 3 5 exp 800 ------- 1 0.0 5.0 4 4
- 1.327167 0 2 pareto 300 ------- 2 0.1 3.0 2 17
- 1.329127 2 1 exp 800 ------- 1 0.0 5.0 9 9
r 1.330167 0 2 exp 800 ------- 1 0.0 5.0 14 16
+ 1.330167 2 1 exp 800 ------- 1 0.0 5.0 14 16
+ 1.330525 0 2 pareto 300 ------- 2 0.1 3.0 6 25
- 1.331007 0 2 exp 800 ------- 1 0.0 5.0 15 18
r 1.331127 2 1 exp 800 ------- 1 0.0 5.0 8 8
+ 1.331127 1 3 exp 800 ------- 1 0.0 5.0 8 8
r 1.334007 0 2 pareto 300 ------- 2 0.1 3.0 2 17
+ 1.334007 2 1 pareto 300 ------- 2 0.1 3.0 2 17
- 1.341247 0 2 pareto 300 ------- 2 0.1 3.0 3 19
+ 1.342525 0 2 pareto 300 ------- 2 0.1 3.0 7 26
r 1.344247 0 2 exp 800 ------- 1 0.0 5.0 15 18
+ 1.344247 2 1 exp 800 ------- 1 0.0 5.0 15 18
- 1.345087 0 2 pareto 300 ------- 2 0.1 3.0 4 20
+ 1.345639 0 2 exp 800 ------- 1 0.0 5.0 19 27
- 1.345793 2 1 exp 800 ------- 1 0.0 5.0 10 10
- 1.347793 1 3 exp 800 ------- 1 0.0 5.0 6 6
r 1.347793 2 1 exp 800 ------- 1 0.0 5.0 9 9
+ 1.347793 1 3 exp 800 ------- 1 0.0 5.0 9 9
r 1.348087 0 2 pareto 300 ------- 2 0.1 3.0 3 19
+ 1.348087 2 1 pareto 300 ------- 2 0.1 3.0 3 19
r 1.348793 1 3 exp 800 ------- 1 0.0 5.0 5 5
+ 1.348793 3 5 exp 800 ------- 1 0.0 5.0 5 5
- 1.348793 3 5 exp 800 ------- 1 0.0 5.0 5 5
- 1.348927 0 2 exp 800 ------- 1 0.0 5.0 16 21
r 1.351804 3 5 exp 800 ------- 1 0.0 5.0 5 5
r 1.351927 0 2 pareto 300 ------- 2 0.1 3.0 4 20
+ 1.351927 2 1 pareto 300 ------- 2 0.1 3.0 4 20
+ 1.353639 0 2 exp 800 ------- 1 0.0 5.0 20 28
+ 1.354525 0 2 pareto 300 ------- 2 0.1 3.0 8 29
- 1.359167 0 2 exp 800 ------- 1 0.0 5.0 17 22
+ 1.361639 0 2 exp 800 ------- 1 0.0 5.0 21 30
r 1.362167 0 2 exp 800 ------- 1 0.0 5.0 16 21
+ 1.362167 2 1 exp 800 ------- 1 0.0 5.0 16 21
- 1.36246 2 1 exp 800 ------- 1 0.0 5.0 11 11
r 1.36446 2 1 exp 800 ------- 1 0.0 5.0 10 10
+ 1.36446 1 3 exp 800 ------- 1 0.0 5.0 10 10
+ 1.366525 0 2 pareto 300 ------- 2 0.1 3.0 9 31
- 1.369407 0 2 pareto 300 ------- 2 0.1 3.0 5 23
+ 1.369639 0 2 exp 800 ------- 1 0.0 5.0 22 32
r 1.372407 0 2 exp 800 ------- 1 0.0 5.0 17 22
+ 1.372407 2 1 exp 800 ------- 1 0.0 5.0 17 22
- 1.372793 1 3 exp 800 ------- 1 0.0 5.0 7 7
- 1.373247 0 2 exp 800 ------- 1 0.0 5.0 18 24
r 1.373793 1 3 exp 800 ------- 1 0.0 5.0 6 6
+ 1.373793 3 5 exp 800 ------- 1 0.0 5.0 6 6
- 1.373793 3 5 exp 800 ------- 1 0.0 5.0 6 6
r 1.376247 0 2 pareto 300 ------- 2 0.1 3.0 5 23
+ 1.376247 2 1 pareto 300 ------- 2 0.1 3.0 5 23
r 1.376804 3 5 exp 800 ------- 1 0.0 5.0 6 6
+ 1.378525 0 2 pareto 300 ------- 2 0.1 3.0 10 33
- 1.379127 2 1 pareto 300 ------- 2 0.1 3.0 0 12
r 1.381127 2 1 exp 800 ------- 1 0.0 5.0 11 11
+ 1.381127 1 3 exp 800 ------- 1 0.0 5.0 11 11
- 1.383487 0 2 pareto 300 ------- 2 0.1 3.0 6 25
- 1.385377 2 1 exp 800 ------- 1 0.0 5.0 12 13
r 1.386487 0 2 exp 800 ------- 1 0.0 5.0 18 24
+ 1.386487 2 1 exp 800 ------- 1 0.0 5.0 18 24
- 1.387327 0 2 pareto 300 ------- 2 0.1 3.0 7 26
r 1.387377 2 1 pareto 300 ------- 2 0.1 3.0 0 12
+ 1.387377 1 3 pareto 300 ------- 2 0.1 3.0 0 12
r 1.390327 0 2 pareto 300 ------- 2 0.1 3.0 6 25
+ 1.390327 2 1 pareto 300 ------- 2 0.1 3.0 6 25
+ 1.390525 0 2 pareto 300 ------- 2 0.1 3.0 11 34
- 1.391167 0 2 exp 800 ------- 1 0.0 5.0 19 27
r 1.394167 0 2 pareto 300 ------- 2 0.1 3.0 7 26
+ 1.394167 2 1 pareto 300 ------- 2 0.1 3.0 7 26
- 1.397793 1 3 exp 800 ------- 1 0.0 5.0 8 8
r 1.398793 1 3 exp 800 ------- 1 0.0 5.0 7 7
+ 1.398793 3 5 exp 800 ------- 1 0.0 5.0 7 7
- 1.398793 3 5 exp 800 ------- 1 0.0 5.0 7 7
- 1.401407 0 2 exp 800 ------- 1 0.0 5.0 20 28
r 1.401804 3 5 exp 800 ------- 1 0.0 5.0 7 7
- 1.402043 2 1 exp 800 ------- 1 0.0 5.0 13 14
+ 1.402525 0 2 pareto 300 ------- 2 0.1 3.0 12 35
r 1.404043 2 1 exp 800 ------- 1 0.0 5.0 12 13
+ 1.404043 1 3 exp 800 ------- 1 0.0 5.0 12 13
r 1.404407 0 2 exp 800 ------- 1 0.0 5.0 19 27
+ 1.404407 2 1 exp 800 ------- 1 0.0 5.0 19 27
+ 1.406763 0 2 exp 800 ------- 1 0.0 5.0 23 36
- 1.411647 0 2 pareto 300 ------- 2 0.1 3.0 8 29
+ 1.414525 0 2 pareto 300 ------- 2 0.1 3.0 13 37
r 1.414647 0 2 exp 800 ------- 1 0.0 5.0 20 28
+ 1.414647 2 1 exp 800 ------- 1 0.0 5.0 20 28
+ 1.414763 0 2 exp 800 ------- 1 0.0 5.0 24 38
- 1.415487 0 2 exp 800 ------- 1 0.0 5.0 21 30
r 1.418487 0 2 pareto 300 ------- 2 0.1 3.0 8 29
+ 1.418487 2 1 pareto 300 ------- 2 0.1 3.0 8 29
- 1.41871 2 1 pareto 300 ------- 2 0.1 3.0 1 15
r 1.42071 2 1 exp 800 ------- 1 0.0 5.0 13 14
+ 1.42071 1 3 exp 800 ------- 1 0.0 5.0 13 14
+ 1.422763 0 2 exp 800 ------- 1 0.0 5.0 25 39
- 1.422793 1 3 exp 800 ------- 1 0.0 5.0 9 9
r 1.423793 1 3 exp 800 ------- 1 0.0 5.0 8 8
+ 1.423793 3 5 exp 800 ------- 1 0.0 5.0 8 8
- 1.423793 3 5 exp 800 ------- 1 0.0 5.0 8 8
- 1.42496 2 1 exp 800 ------- 1 0.0 5.0 14 16
- 1.425727 0 2 pareto 300 ------- 2 0.1 3.0 9 31
+ 1.426525 0 2 pareto 300 ------- 2 0.1 3.0 14 40
r 1.426804 3 5 exp 800 ------- 1 0.0 5.0 8 8
r 1.42696 2 1 pareto 300 ------- 2 0.1 3.0 1 15
+ 1.42696 1 3 pareto 300 ------- 2 0.1 3.0 1 15
r 1.428727 0 2 exp 800 ------- 1 0.0 5.0 21 30
+ 1.428727 2 1 exp 800 ------- 1 0.0 5.0 21 30
- 1.429567 0 2 exp 800 ------- 1 0.0 5.0 22 32
+ 1.430763 0 2 exp 800 ------- 1 0.0 5.0 26 41
r 1.432567 0 2 pareto 300 ------- 2 0.1 3.0 9 31
+ 1.432567 2 1 pareto 300 ------- 2 0.1 3.0 9 31
+ 1.438525 0 2 pareto 300 ------- 2 0.1 3.0 15 42
+ 1.438763 0 2 exp 800 ------- 1 0.0 5.0 27 43
- 1.439807 0 2 pareto 300 ------- 2 0.1 3.0 10 33
- 1.441627 2 1 pareto 300 ------- 2 0.1 3.0 2 17
r 1.442807 0 2 exp 800 ------- 1 0.0 5.0 22 32
+ 1.442807 2 1 exp 800 ------- 1 0.0 5.0 22 32
r 1.443627 2 1 exp 800 ------- 1 0.0 5.0 14 16
+ 1.443627 1 3 exp 800 ------- 1 0.0 5.0 14 16
- 1.443647 0 2 pareto 300 ------- 2 0.1 3.0 11 34
r 1.446647 0 2 pareto 300 ------- 2 0.1 3.0 10 33
+ 1.446647 2 1 pareto 300 ------- 2 0.1 3.0 10 33
- 1.447487 0 2 pareto 300 ------- 2 0.1 3.0 12 35
- 1.447793 1 3 exp 800 ------- 1 0.0 5.0 10 10
- 1.447877 2 1 exp 800 ------- 1 0.0 5.0 15 18
r 1.448793 1 3 exp 800 ------- 1 0.0 5.0 9 9
+ 1.448793 3 5 exp 800 ------- 1 0.0 5.0 9 9
- 1.448793 3 5 exp 800 ------- 1 0.0 5.0 9 9
r 1.449877 2 1 pareto 300 ------- 2 0.1 3.0 2 17
+ 1.449877 1 3 pareto 300 ------- 2 0.1 3.0 2 17
r 1.450487 0 2 pareto 300 ------- 2 0.1 3.0 11 34
+ 1.450487 2 1 pareto 300 ------- 2 0.1 3.0 11 34
+ 1.450525 0 2 pareto 300 ------- 2 0.1 3.0 16 44
- 1.451327 0 2 exp 800 ------- 1 0.0 5.0 23 36
r 1.451804 3 5 exp 800 ------- 1 0.0 5.0 9 9
r 1.454327 0 2 pareto 300 ------- 2 0.1 3.0 12 35
+ 1.454327 2 1 pareto 300 ------- 2 0.1 3.0 12 35
+ 1.458381 0 2 exp 800 ------- 1 0.0 5.0 28 45
- 1.461567 0 2 pareto 300 ------- 2 0.1 3.0 13 37
+ 1.462525 0 2 pareto 300 ------- 2 0.1 3.0 17 46
- 1.464543 2 1 pareto 300 ------- 2 0.1 3.0 3 19
r 1.464567 0 2 exp 800 ------- 1 0.0 5.0 23 36
+ 1.464567 2 1 exp 800 ------- 1 0.0 5.0 23 36
- 1.465407 0 2 exp 800 ------- 1 0.0 5.0 24 38
+ 1.466381 0 2 exp 800 ------- 1 0.0 5.0 29 47
r 1.466543 2 1 exp 800 ------- 1 0.0 5.0 15 18
+ 1.466543 1 3 exp 800 ------- 1 0.0 5.0 15 18
r 1.468407 0 2 pareto 300 ------- 2 0.1 3.0 13 37
+ 1.468407 2 1 pareto 300 ------- 2 0.1 3.0 13 37
- 1.470793 2 1 pareto 300 ------- 2 0.1 3.0 4 20
- 1.472793 1 3 exp 800 ------- 1 0.0 5.0 11 11
r 1.472793 2 1 pareto 300 ------- 2 0.1 3.0 3 19
+ 1.472793 1 3 pareto 300 ------- 2 0.1 3.0 3 19
r 1.473793 1 3 exp 800 ------- 1 0.0 5.0 10 10
+ 1.473793 3 5 exp 800 ------- 1 0.0 5.0 10 10
- 1.473793 3 5 exp 800 ------- 1 0.0 5.0 10 10
+ 1.474381 0 2 exp 800 ------- 1 0.0 5.0 30 48
+ 1.474525 0 2 pareto 300 ------- 2 0.1 3.0 18 49
- 1.475647 0 2 exp 800 ------- 1 0.0 5.0 25 39
r 1.476804 3 5 exp 800 ------- 1 0.0 5.0 10 10
- 1.477043 2 1 exp 800 ------- 1 0.0 5.0 16 21
r 1.478647 0 2 exp 800 ------- 1 0.0 5.0 24 38
+ 1.478647 2 1 exp 800 ------- 1 0.0 5.0 24 38
r 1.479043 2 1 pareto 300 ------- 2 0.1 3.0 4 20
+ 1.479043 1 3 pareto 300 ------- 2 0.1 3.0 4 20
+ 1.482381 0 2 exp 800 ------- 1 0.0 5.0 31 50
- 1.485887 0 2 pareto 300 ------- 2 0.1 3.0 14 40
+ 1.486525 0 2 pareto 300 ------- 2 0.1 3.0 19 51
r 1.488887 0 2 exp 800 ------- 1 0.0 5.0 25 39
+ 1.488887 2 1 exp 800 ------- 1 0.0 5.0 25 39
- 1.489727 0 2 exp 800 ------- 1 0.0 5.0 26 41
r 1.492727 0 2 pareto 300 ------- 2 0.1 3.0 14 40
+ 1.492727 2 1 pareto 300 ------- 2 0.1 3.0 14 40
- 1.49371 2 1 exp 800 ------- 1 0.0 5.0 17 22
r 1.49571 2 1 exp 800 ------- 1 0.0 5.0 16 21
+ 1.49571 1 3 exp 800 ------- 1 0.0 5.0 16 21
- 1.497793 1 3 pareto 300 ------- 2 0.1 3.0 0 12
+ 1.498525 0 2 pareto 300 ------- 2 0.1 3.0 20 52
r 1.498793 1 3 exp 800 ------- 1 0.0 5.0 11 11
+ 1.498793 3 5 exp 800 ------- 1 0.0 5.0 11 11
- 1.498793 3 5 exp 800 ------- 1 0.0 5.0 11 11
- 1.499967 0 2 pareto 300 ------- 2 0.1 3.0 15 42
r 1.501804 3 5 exp 800 ------- 1 0.0 5.0 11 11
r 1.502967 0 2 exp 800 ------- 1 0.0 5.0 26 41
+ 1.502967 2 1 exp 800 ------- 1 0.0 5.0 26 41
- 1.503807 0 2 exp 800 ------- 1 0.0 5.0 27 43
r 1.506807 0 2 pareto 300 ------- 2 0.1 3.0 15 42
+ 1.506807 2 1 pareto 300 ------- 2 0.1 3.0 15 42
- 1.507168 1 3 exp 800 ------- 1 0.0 5.0 12 13
r 1.508168 1 3 pareto 300 ------- 2 0.1 3.0 0 12
- 1.510377 2 1 pareto 300 ------- 2 0.1 3.0 5 23
+ 1.510525 0 2 pareto 300 ------- 2 0.1 3.0 21 53
r 1.512377 2 1 exp 800 ------- 1 0.0 5.0 17 22
+ 1.512377 1 3 exp 800 ------- 1 0.0 5.0 17 22
- 1.514047 0 2 pareto 300 ------- 2 0.1 3.0 16 44
- 1.516627 2 1 exp 800 ------- 1 0.0 5.0 18 24
r 1.517047 0 2 exp 800 ------- 1 0.0 5.0 27 43
+ 1.517047 2 1 exp 800 ------- 1 0.0 5.0 27 43
- 1.517887 0 2 exp 800 ------- 1 0.0 5.0 28 45
r 1.518627 2 1 pareto 300 ------- 2 0.1 3.0 5 23
+ 1.518627 1 3 pareto 300 ------- 2 0.1 3.0 5 23
r 1.520887 0 2 pareto 300 ------- 2 0.1 3.0 16 44
+ 1.520887 2 1 pareto 300 ------- 2 0.1 3.0 16 44
+ 1.522525 0 2 pareto 300 ------- 2 0.1 3.0 22 54
- 1.528127 0 2 pareto 300 ------- 2 0.1 3.0 17 46
r 1.531127 0 2 exp 800 ------- 1 0.0 5.0 28 45
+ 1.531127 2 1 exp 800 ------- 1 0.0 5.0 28 45
- 1.531967 0 2 exp 800 ------- 1 0.0 5.0 29 47
- 1.532168 1 3 exp 800 ------- 1 0.0 5.0 13 14
r 1.533168 1 3 exp 800 ------- 1 0.0 5.0 12 13
+ 1.533168 3 5 exp 800 ------- 1 0.0 5.0 12 13
- 1.533168 3 5 exp 800 ------- 1 0.0 5.0 12 13
- 1.533293 2 1 pareto 300 ------- 2 0.1 3.0 6 25
+ 1.534525 0 2 pareto 300 ------- 2 0.1 3.0 23 55
r 1.534967 0 2 pareto 300 ------- 2 0.1 3.0 17 46
+ 1.534967 2 1 pareto 300 ------- 2 0.1 3.0 17 46
r 1.535293 2 1 exp 800 ------- 1 0.0 5.0 18 24
+ 1.535293 1 3 exp 800 ------- 1 0.0 5.0 18 24
r 1.536179 3 5 exp 800 ------- 1 0.0 5.0 12 13
- 1.539543 2 1 pareto 300 ------- 2 0.1 3.0 7 26
r 1.541543 2 1 pareto 300 ------- 2 0.1 3.0 6 25
+ 1.541543 1 3 pareto 300 ------- 2 0.1 3.0 6 25
- 1.542207 0 2 exp 800 ------- 1 0.0 5.0 30 48
r 1.545207 0 2 exp 800 ------- 1 0.0 5.0 29 47
+ 1.545207 2 1 exp 800 ------- 1 0.0 5.0 29 47
- 1.545793 2 1 exp 800 ------- 1 0.0 5.0 19 27
+ 1.546525 0 2 pareto 300 ------- 2 0.1 3.0 24 56
r 1.547793 2 1 pareto 300 ------- 2 0.1 3.0 7 26
+ 1.547793 1 3 pareto 300 ------- 2 0.1 3.0 7 26
- 1.552447 0 2 pareto 300 ------- 2 0.1 3.0 18 49
r 1.555447 0 2 exp 800 ------- 1 0.0 5.0 30 48
+ 1.555447 2 1 exp 800 ------- 1 0.0 5.0 30 48
- 1.556287 0 2 exp 800 ------- 1 0.0 5.0 31 50
- 1.557168 1 3 pareto 300 ------- 2 0.1 3.0 1 15
r 1.558168 1 3 exp 800 ------- 1 0.0 5.0 13 14
+ 1.558168 3 5 exp 800 ------- 1 0.0 5.0 13 14
- 1.558168 3 5 exp 800 ------- 1 0.0 5.0 13 14
+ 1.558525 0 2 pareto 300 ------- 2 0.1 3.0 25 57
r 1.559287 0 2 pareto 300 ------- 2 0.1 3.0 18 49
+ 1.559287 2 1 pareto 300 ------- 2 0.1 3.0 18 49
r 1.561179 3 5 exp 800 ------- 1 0.0 5.0 13 14
- 1.56246 2 1 exp 800 ------- 1 0.0 5.0 20 28
r 1.56446 2 1 exp 800 ------- 1 0.0 5.0 19 27
+ 1.56446 1 3 exp 800 ------- 1 0.0 5.0 19 27
- 1.566527 0 2 pareto 300 ------- 2 0.1 3.0 19 51
- 1.566543 1 3 exp 800 ------- 1 0.0 5.0 14 16
r 1.567543 1 3 pareto 300 ------- 2 0.1 3.0 1 15
r 1.569527 0 2 exp 800 ------- 1 0.0 5.0 31 50
+ 1.569527 2 1 exp 800 ------- 1 0.0 5.0 31 50
- 1.570367 0 2 pareto 300 ------- 2 0.1 3.0 20 52
+ 1.570525 0 2 pareto 300 ------- 2 0.1 3.0 26 58
r 1.573367 0 2 pareto 300 ------- 2 0.1 3.0 19 51
+ 1.573367 2 1 pareto 300 ------- 2 0.1 3.0 19 51
- 1.574207 0 2 pareto 300 ------- 2 0.1 3.0 21 53
r 1.577207 0 2 pareto 300 ------- 2 0.1 3.0 20 52
+ 1.577207 2 1 pareto 300 ------- 2 0.1 3.0 20 52
- 1.578047 0 2 pareto 300 ------- 2 0.1 3.0 22 54
- 1.579127 2 1 pareto 300 ------- 2 0.1 3.0 8 29
r 1.581047 0 2 pareto 300 ------- 2 0.1 3.0 21 53
+ 1.581047 2 1 pareto 300 ------- 2 0.1 3.0 21 53
r 1.581127 2 1 exp 800 ------- 1 0.0 5.0 20 28
+ 1.581127 1 3 exp 800 ------- 1 0.0 5.0 20 28
- 1.581887 0 2 pareto 300 ------- 2 0.1 3.0 23 55
+ 1.582525 0 2 pareto 300 ------- 2 0.1 3.0 27 59
r 1.584887 0 2 pareto 300 ------- 2 0.1 3.0 22 54
+ 1.584887 2 1 pareto 300 ------- 2 0.1 3.0 22 54
- 1.585377 2 1 exp 800 ------- 1 0.0 5.0 21 30
- 1.585727 0 2 pareto 300 ------- 2 0.1 3.0 24 56
r 1.587377 2 1 pareto 300 ------- 2 0.1 3.0 8 29
+ 1.587377 1 3 pareto 300 ------- 2 0.1 3.0 8 29
r 1.588727 0 2 pareto 300 ------- 2 0.1 3.0 23 55
+ 1.588727 2 1 pareto 300 ------- 2 0.1 3.0 23 55
- 1.589567 0 2 pareto 300 ------- 2 0.1 3.0 25 57
- 1.591543 1 3 pareto 300 ------- 2 0.1 3.0 2 17
r 1.592543 1 3 exp 800 ------- 1 0.0 5.0 14 16
+ 1.592543 3 5 exp 800 ------- 1 0.0 5.0 14 16
- 1.592543 3 5 exp 800 ------- 1 0.0 5.0 14 16
r 1.592567 0 2 pareto 300 ------- 2 0.1 3.0 24 56
+ 1.592567 2 1 pareto 300 ------- 2 0.1 3.0 24 56
- 1.593407 0 2 pareto 300 ------- 2 0.1 3.0 26 58
+ 1.594525 0 2 pareto 300 ------- 2 0.1 3.0 28 60
r 1.595554 3 5 exp 800 ------- 1 0.0 5.0 14 16
r 1.596407 0 2 pareto 300 ------- 2 0.1 3.0 25 57
+ 1.596407 2 1 pareto 300 ------- 2 0.1 3.0 25 57
- 1.597247 0 2 pareto 300 ------- 2 0.1 3.0 27 59
r 1.600247 0 2 pareto 300 ------- 2 0.1 3.0 26 58
+ 1.600247 2 1 pareto 300 ------- 2 0.1 3.0 26 58
- 1.600918 1 3 exp 800 ------- 1 0.0 5.0 15 18
- 1.601087 0 2 pareto 300 ------- 2 0.1 3.0 28 60
r 1.601918 1 3 pareto 300 ------- 2 0.1 3.0 2 17
- 1.602043 2 1 pareto 300 ------- 2 0.1 3.0 9 31
r 1.604043 2 1 exp 800 ------- 1 0.0 5.0 21 30
+ 1.604043 1 3 exp 800 ------- 1 0.0 5.0 21 30
r 1.604087 0 2 pareto 300 ------- 2 0.1 3.0 27 59
+ 1.604087 2 1 pareto 300 ------- 2 0.1 3.0 27 59
+ 1.606525 0 2 pareto 300 ------- 2 0.1 3.0 29 61
- 1.606525 0 2 pareto 300 ------- 2 0.1 3.0 29 61
r 1.607927 0 2 pareto 300 ------- 2 0.1 3.0 28 60
+ 1.607927 2 1 pareto 300 ------- 2 0.1 3.0 28 60
- 1.608293 2 1 exp 800 ------- 1 0.0 5.0 22 32
r 1.610293 2 1 pareto 300 ------- 2 0.1 3.0 9 31
+ 1.610293 1 3 pareto 300 ------- 2 0.1 3.0 9 31
r 1.613365 0 2 pareto 300 ------- 2 0.1 3.0 29 61
+ 1.613365 2 1 pareto 300 ------- 2 0.1 3.0 29 61
+ 1.618525 0 2 pareto 300 ------- 2 0.1 3.0 30 62
- 1.618525 0 2 pareto 300 ------- 2 0.1 3.0 30 62
- 1.62496 2 1 pareto 300 ------- 2 0.1 3.0 10 33
r 1.625365 0 2 pareto 300 ------- 2 0.1 3.0 30 62
+ 1.625365 2 1 pareto 300 ------- 2 0.1 3.0 30 62
- 1.625918 1 3 pareto 300 ------- 2 0.1 3.0 3 19
r 1.626918 1 3 exp 800 ------- 1 0.0 5.0 15 18
+ 1.626918 3 5 exp 800 ------- 1 0.0 5.0 15 18
- 1.626918 3 5 exp 800 ------- 1 0.0 5.0 15 18
r 1.62696 2 1 exp 800 ------- 1 0.0 5.0 22 32
+ 1.62696 1 3 exp 800 ------- 1 0.0 5.0 22 32
r 1.629929 3 5 exp 800 ------- 1 0.0 5.0 15 18
+ 1.630525 0 2 pareto 300 ------- 2 0.1 3.0 31 63
- 1.630525 0 2 pareto 300 ------- 2 0.1 3.0 31 63
- 1.63121 2 1 pareto 300 ------- 2 0.1 3.0 11 34
r 1.63321 2 1 pareto 300 ------- 2 0.1 3.0 10 33
+ 1.63321 1 3 pareto 300 ------- 2 0.1 3.0 10 33
- 1.635293 1 3 pareto 300 ------- 2 0.1 3.0 4 20
r 1.636293 1 3 pareto 300 ------- 2 0.1 3.0 3 19
r 1.637365 0 2 pareto 300 ------- 2 0.1 3.0 31 63
+ 1.637365 2 1 pareto 300 ------- 2 0.1 3.0 31 63
- 1.63746 2 1 pareto 300 ------- 2 0.1 3.0 12 35
r 1.63946 2 1 pareto 300 ------- 2 0.1 3.0 11 34
+ 1.63946 1 3 pareto 300 ------- 2 0.1 3.0 11 34
+ 1.642525 0 2 pareto 300 ------- 2 0.1 3.0 32 64
- 1.642525 0 2 pareto 300 ------- 2 0.1 3.0 32 64
- 1.64371 2 1 exp 800 ------- 1 0.0 5.0 23 36
- 1.644668 1 3 exp 800 ------- 1 0.0 5.0 16 21
r 1.645668 1 3 pareto 300 ------- 2 0.1 3.0 4 20
r 1.64571 2 1 pareto 300 ------- 2 0.1 3.0 12 35
+ 1.64571 1 3 pareto 300 ------- 2 0.1 3.0 12 35
r 1.649365 0 2 pareto 300 ------- 2 0.1 3.0 32 64
+ 1.649365 2 1 pareto 300 ------- 2 0.1 3.0 32 64
+ 1.654525 0 2 pareto 300 ------- 2 0.1 3.0 33 65
- 1.654525 0 2 pareto 300 ------- 2 0.1 3.0 33 65
- 1.660377 2 1 pareto 300 ------- 2 0.1 3.0 13 37
r 1.661365 0 2 pareto 300 ------- 2 0.1 3.0 33 65
+ 1.661365 2 1 pareto 300 ------- 2 0.1 3.0 33 65
r 1.662377 2 1 exp 800 ------- 1 0.0 5.0 23 36
+ 1.662377 1 3 exp 800 ------- 1 0.0 5.0 23 36
+ 1.666525 0 2 pareto 300 ------- 2 0.1 3.0 34 66
- 1.666525 0 2 pareto 300 ------- 2 0.1 3.0 34 66
- 1.666627 2 1 exp 800 ------- 1 0.0 5.0 24 38
r 1.668627 2 1 pareto 300 ------- 2 0.1 3.0 13 37
+ 1.668627 1 3 pareto 300 ------- 2 0.1 3.0 13 37
- 1.669668 1 3 exp 800 ------- 1 0.0 5.0 17 22
r 1.670668 1 3 exp 800 ------- 1 0.0 5.0 16 21
+ 1.670668 3 5 exp 800 ------- 1 0.0 5.0 16 21
- 1.670668 3 5 exp 800 ------- 1 0.0 5.0 16 21
r 1.673365 0 2 pareto 300 ------- 2 0.1 3.0 34 66
+ 1.673365 2 1 pareto 300 ------- 2 0.1 3.0 34 66
r 1.673679 3 5 exp 800 ------- 1 0.0 5.0 16 21
+ 1.678525 0 2 pareto 300 ------- 2 0.1 3.0 35 67
- 1.678525 0 2 pareto 300 ------- 2 0.1 3.0 35 67
- 1.683293 2 1 exp 800 ------- 1 0.0 5.0 25 39
r 1.685293 2 1 exp 800 ------- 1 0.0 5.0 24 38
+ 1.685293 1 3 exp 800 ------- 1 0.0 5.0 24 38
r 1.685365 0 2 pareto 300 ------- 2 0.1 3.0 35 67
+ 1.685365 2 1 pareto 300 ------- 2 0.1 3.0 35 67
+ 1.690525 0 2 pareto 300 ------- 2 0.1 3.0 36 68
- 1.690525 0 2 pareto 300 ------- 2 0.1 3.0 36 68
- 1.694668 1 3 pareto 300 ------- 2 0.1 3.0 5 23
+ 1.695218 0 2 exp 800 ------- 1 0.0 5.0 32 69
- 1.695218 0 2 exp 800 ------- 1 0.0 5.0 32 69
r 1.695668 1 3 exp 800 ------- 1 0.0 5.0 17 22
+ 1.695668 3 5 exp 800 ------- 1 0.0 5.0 17 22
- 1.695668 3 5 exp 800 ------- 1 0.0 5.0 17 22
r 1.697365 0 2 pareto 300 ------- 2 0.1 3.0 36 68
+ 1.697365 2 1 pareto 300 ------- 2 0.1 3.0 36 68
r 1.698679 3 5 exp 800 ------- 1 0.0 5.0 17 22
- 1.69996 2 1 pareto 300 ------- 2 0.1 3.0 14 40
r 1.70196 2 1 exp 800 ------- 1 0.0 5.0 25 39
+ 1.70196 1 3 exp 800 ------- 1 0.0 5.0 25 39
+ 1.702525 0 2 pareto 300 ------- 2 0.1 3.0 37 70
+ 1.703218 0 2 exp 800 ------- 1 0.0 5.0 33 71
- 1.704043 1 3 exp 800 ------- 1 0.0 5.0 18 24
r 1.705043 1 3 pareto 300 ------- 2 0.1 3.0 5 23
- 1.705458 0 2 pareto 300 ------- 2 0.1 3.0 37 70
- 1.70621 2 1 exp 800 ------- 1 0.0 5.0 26 41
r 1.70821 2 1 pareto 300 ------- 2 0.1 3.0 14 40
+ 1.70821 1 3 pareto 300 ------- 2 0.1 3.0 14 40
r 1.708458 0 2 exp 800 ------- 1 0.0 5.0 32 69
+ 1.708458 2 1 exp 800 ------- 1 0.0 5.0 32 69
- 1.709298 0 2 exp 800 ------- 1 0.0 5.0 33 71
+ 1.711218 0 2 exp 800 ------- 1 0.0 5.0 34 72
r 1.712298 0 2 pareto 300 ------- 2 0.1 3.0 37 70
+ 1.712298 2 1 pareto 300 ------- 2 0.1 3.0 37 70
+ 1.714525 0 2 pareto 300 ------- 2 0.1 3.0 38 73
+ 1.719218 0 2 exp 800 ------- 1 0.0 5.0 35 74
- 1.719538 0 2 exp 800 ------- 1 0.0 5.0 34 72
r 1.722538 0 2 exp 800 ------- 1 0.0 5.0 33 71
+ 1.722538 2 1 exp 800 ------- 1 0.0 5.0 33 71
- 1.722877 2 1 pareto 300 ------- 2 0.1 3.0 15 42
r 1.724877 2 1 exp 800 ------- 1 0.0 5.0 26 41
+ 1.724877 1 3 exp 800 ------- 1 0.0 5.0 26 41
+ 1.726525 0 2 pareto 300 ------- 2 0.1 3.0 39 75
+ 1.727218 0 2 exp 800 ------- 1 0.0 5.0 36 76
- 1.729043 1 3 pareto 300 ------- 2 0.1 3.0 6 25
- 1.729127 2 1 exp 800 ------- 1 0.0 5.0 27 43
- 1.729778 0 2 pareto 300 ------- 2 0.1 3.0 38 73
r 1.730043 1 3 exp 800 ------- 1 0.0 5.0 18 24
+ 1.730043 3 5 exp 800 ------- 1 0.0 5.0 18 24
- 1.730043 3 5 exp 800 ------- 1 0.0 5.0 18 24
r 1.731127 2 1 pareto 300 ------- 2 0.1 3.0 15 42
+ 1.731127 1 3 pareto 300 ------- 2 0.1 3.0 15 42
r 1.732778 0 2 exp 800 ------- 1 0.0 5.0 34 72
+ 1.732778 2 1 exp 800 ------- 1 0.0 5.0 34 72
r 1.733054 3 5 exp 800 ------- 1 0.0 5.0 18 24
- 1.733618 0 2 exp 800 ------- 1 0.0 5.0 35 74
+ 1.735218 0 2 exp 800 ------- 1 0.0 5.0 37 77
r 1.736618 0 2 pareto 300 ------- 2 0.1 3.0 38 73
+ 1.736618 2 1 pareto 300 ------- 2 0.1 3.0 38 73
- 1.738418 1 3 pareto 300 ------- 2 0.1 3.0 7 26
+ 1.738525 0 2 pareto 300 ------- 2 0.1 3.0 40 78
r 1.739418 1 3 pareto 300 ------- 2 0.1 3.0 6 25
+ 1.743218 0 2 exp 800 ------- 1 0.0 5.0 38 79
- 1.743858 0 2 pareto 300 ------- 2 0.1 3.0 39 75
- 1.745793 2 1 pareto 300 ------- 2 0.1 3.0 16 44
r 1.746858 0 2 exp 800 ------- 1 0.0 5.0 35 74
+ 1.746858 2 1 exp 800 ------- 1 0.0 5.0 35 74
- 1.747698 0 2 exp 800 ------- 1 0.0 5.0 36 76
- 1.747793 1 3 exp 800 ------- 1 0.0 5.0 19 27
r 1.747793 2 1 exp 800 ------- 1 0.0 5.0 27 43
+ 1.747793 1 3 exp 800 ------- 1 0.0 5.0 27 43
r 1.748793 1 3 pareto 300 ------- 2 0.1 3.0 7 26
+ 1.750525 0 2 pareto 300 ------- 2 0.1 3.0 41 80
r 1.750698 0 2 pareto 300 ------- 2 0.1 3.0 39 75
+ 1.750698 2 1 pareto 300 ------- 2 0.1 3.0 39 75
- 1.752043 2 1 exp 800 ------- 1 0.0 5.0 28 45
r 1.754043 2 1 pareto 300 ------- 2 0.1 3.0 16 44
+ 1.754043 1 3 pareto 300 ------- 2 0.1 3.0 16 44
+ 1.754809 0 2 exp 800 ------- 1 0.0 5.0 39 81
- 1.757938 0 2 exp 800 ------- 1 0.0 5.0 37 77
r 1.760938 0 2 exp 800 ------- 1 0.0 5.0 36 76
+ 1.760938 2 1 exp 800 ------- 1 0.0 5.0 36 76
+ 1.762525 0 2 pareto 300 ------- 2 0.1 3.0 42 82
- 1.768178 0 2 pareto 300 ------- 2 0.1 3.0 40 78
- 1.76871 2 1 pareto 300 ------- 2 0.1 3.0 17 46
r 1.77071 2 1 exp 800 ------- 1 0.0 5.0 28 45
+ 1.77071 1 3 exp 800 ------- 1 0.0 5.0 28 45
r 1.771178 0 2 exp 800 ------- 1 0.0 5.0 37 77
+ 1.771178 2 1 exp 800 ------- 1 0.0 5.0 37 77
- 1.772018 0 2 exp 800 ------- 1 0.0 5.0 38 79
- 1.772793 1 3 exp 800 ------- 1 0.0 5.0 20 28
r 1.773793 1 3 exp 800 ------- 1 0.0 5.0 19 27
+ 1.773793 3 5 exp 800 ------- 1 0.0 5.0 19 27
- 1.773793 3 5 exp 800 ------- 1 0.0 5.0 19 27
+ 1.774525 0 2 pareto 300 ------- 2 0.1 3.0 43 83
- 1.77496 2 1 exp 800 ------- 1 0.0 5.0 29 47
r 1.775018 0 2 pareto 300 ------- 2 0.1 3.0 40 78
+ 1.775018 2 1 pareto 300 ------- 2 0.1 3.0 40 78
r 1.776804 3 5 exp 800 ------- 1 0.0 5.0 19 27
r 1.77696 2 1 pareto 300 ------- 2 0.1 3.0 17 46
+ 1.77696 1 3 pareto 300 ------- 2 0.1 3.0 17 46
- 1.782258 0 2 pareto 300 ------- 2 0.1 3.0 41 80
r 1.785258 0 2 exp 800 ------- 1 0.0 5.0 38 79
+ 1.785258 2 1 exp 800 ------- 1 0.0 5.0 38 79
- 1.786098 0 2 exp 800 ------- 1 0.0 5.0 39 81
+ 1.786525 0 2 pareto 300 ------- 2 0.1 3.0 44 84
r 1.789098 0 2 pareto 300 ------- 2 0.1 3.0 41 80
+ 1.789098 2 1 pareto 300 ------- 2 0.1 3.0 41 80
- 1.791627 2 1 exp 800 ------- 1 0.0 5.0 30 48
r 1.793627 2 1 exp 800 ------- 1 0.0 5.0 29 47
+ 1.793627 1 3 exp 800 ------- 1 0.0 5.0 29 47
- 1.796338 0 2 pareto 300 ------- 2 0.1 3.0 42 82
- 1.797793 1 3 pareto 300 ------- 2 0.1 3.0 8 29
+ 1.798525 0 2 pareto 300 ------- 2 0.1 3.0 45 85
r 1.798793 1 3 exp 800 ------- 1 0.0 5.0 20 28
+ 1.798793 3 5 exp 800 ------- 1 0.0 5.0 20 28
- 1.798793 3 5 exp 800 ------- 1 0.0 5.0 20 28
r 1.799338 0 2 exp 800 ------- 1 0.0 5.0 39 81
+ 1.799338 2 1 exp 800 ------- 1 0.0 5.0 39 81
- 1.800178 0 2 pareto 300 ------- 2 0.1 3.0 43 83
r 1.801804 3 5 exp 800 ------- 1 0.0 5.0 20 28
r 1.803178 0 2 pareto 300 ------- 2 0.1 3.0 42 82
+ 1.803178 2 1 pareto 300 ------- 2 0.1 3.0 42 82
- 1.804018 0 2 pareto 300 ------- 2 0.1 3.0 44 84
r 1.807018 0 2 pareto 300 ------- 2 0.1 3.0 43 83
+ 1.807018 2 1 pareto 300 ------- 2 0.1 3.0 43 83
- 1.807168 1 3 exp 800 ------- 1 0.0 5.0 21 30
- 1.807858 0 2 pareto 300 ------- 2 0.1 3.0 45 85
r 1.808168 1 3 pareto 300 ------- 2 0.1 3.0 8 29
- 1.808293 2 1 pareto 300 ------- 2 0.1 3.0 18 49
r 1.810293 2 1 exp 800 ------- 1 0.0 5.0 30 48
+ 1.810293 1 3 exp 800 ------- 1 0.0 5.0 30 48
+ 1.810525 0 2 pareto 300 ------- 2 0.1 3.0 46 86
r 1.810858 0 2 pareto 300 ------- 2 0.1 3.0 44 84
+ 1.810858 2 1 pareto 300 ------- 2 0.1 3.0 44 84
d 1.810858 2 1 pareto 300 ------- 2 0.1 3.0 44 84
- 1.811698 0 2 pareto 300 ------- 2 0.1 3.0 46 86
- 1.814543 2 1 exp 800 ------- 1 0.0 5.0 31 50
r 1.814698 0 2 pareto 300 ------- 2 0.1 3.0 45 85
+ 1.814698 2 1 pareto 300 ------- 2 0.1 3.0 45 85
r 1.816543 2 1 pareto 300 ------- 2 0.1 3.0 18 49
+ 1.816543 1 3 pareto 300 ------- 2 0.1 3.0 18 49
r 1.818538 0 2 pareto 300 ------- 2 0.1 3.0 46 86
+ 1.818538 2 1 pareto 300 ------- 2 0.1 3.0 46 86
+ 1.822525 0 2 pareto 300 ------- 2 0.1 3.0 47 87
- 1.822525 0 2 pareto 300 ------- 2 0.1 3.0 47 87
r 1.829365 0 2 pareto 300 ------- 2 0.1 3.0 47 87
+ 1.829365 2 1 pareto 300 ------- 2 0.1 3.0 47 87
- 1.83121 2 1 pareto 300 ------- 2 0.1 3.0 19 51