n -t 0 -s 0 -S DLABEL -l "0" -L ""
n -t 0 -s 1 -S DLABEL -l "1" -L ""
n -t 0 -s 2 -S DLABEL -l "2" -L ""
n -t 0 -s 3 -S DLABEL -l "3" -L ""
n -t 0 -s 4 -S DLABEL -l "4" -L ""
n -t 0 -s 5 -S DLABEL -l "5" -L ""
V -t * -v 1.0a5 -a 0
A -t * -n 1 -p 0 -o 0x7fffffff -c 30 -a 1
A -t * -h 1 -m 1073741823 -s 0
n -t * -a 4 -s 4 -S UP -v circle -c Green -i Green
n -t * -a 0 -s 0 -S UP -v circle -c Red -i Red
n -t * -a 5 -s 5 -S UP -v circle -c Red -i Red
n -t * -a 1 -s 1 -S UP -v circle -c Yellow -i Yellow
n -t * -a 2 -s 2 -S UP -v circle -c Blue -i Blue
n -t * -a 3 -s 3 -S UP -v circle -c Blue -i Blue
l -t * -s 5 -d 3 -S UP -r 625000000 -D 0.0030000000000000001 -c black -o down
l -t * -s 3 -d 1 -S UP -r 256000 -D 0.001 -c black -o left-down
l -t * -s 3 -d 4 -S UP -r 384000 -D 0.002 -c black -o right-down
l -t * -s 1 -d 2 -S UP -r 384000 -D 0.002 -c black -o right-down
l -t * -s 4 -d 2 -S UP -r 256000 -D 0.001 -c black -o left-down
l -t * -s 2 -d 0 -S UP -r 625000 -D 0.0030000000000000001 -c black -o down
+ -t 1.16588665379534 -s 0 -d 2 -p exp -e 800 -c 1 -i 0 -a 1 -x {0.0 5.0 0 ------- null}
- -t 1.16588665379534 -s 0 -d 2 -p exp -e 800 -c 1 -i 0 -a 1 -x {0.0 5.0 0 ------- null}
h -t 1.16588665379534 -s 0 -d 2 -p exp -e 800 -c 1 -i 0 -a 1 -x {0.0 5.0 -1 ------- null}
+ -t 1.17388665379534 -s 0 -d 2 -p exp -e 800 -c 1 -i 1 -a 1 -x {0.0 5.0 1 ------- null}
- -t 1.17612665379534 -s 0 -d 2 -p exp -e 800 -c 1 -i 1 -a 1 -x {0.0 5.0 1 ------- null}
h -t 1.17612665379534 -s 0 -d 2 -p exp -e 800 -c 1 -i 1 -a 1 -x {0.0 5.0 -1 ------- null}
r -t 1.17912665379534 -s 0 -d 2 -p exp -e 800 -c 1 -i 0 -a 1 -x {0.0 5.0 0 ------- null}
+ -t 1.17912665379534 -s 2 -d 1 -p exp -e 800 -c 1 -i 0 -a 1 -x {0.0 5.0 0 ------- null}
- -t 1.17912665379534 -s 2 -d 1 -p exp -e 800 -c 1 -i 0 -a 1 -x {0.0 5.0 0 ------- null}
h -t 1.17912665379534 -s 2 -d 1 -p exp -e 800 -c 1 -i 0 -a 1 -x {0.0 5.0 -1 ------- null}
+ -t 1.18188665379534 -s 0 -d 2 -p exp -e 800 -c 1 -i 2 -a 1 -x {0.0 5.0 2 ------- null}
- -t 1.18636665379534 -s 0 -d 2 -p exp -e 800 -c 1 -i 2 -a 1 -x {0.0 5.0 2 ------- null}
h -t 1.18636665379534 -s 0 -d 2 -p exp -e 800 -c 1 -i 2 -a 1 -x {0.0 5.0 -1 ------- null}
r -t 1.18936665379534 -s 0 -d 2 -p exp -e 800 -c 1 -i 1 -a 1 -x {0.0 5.0 1 ------- null}
+ -t 1.18936665379534 -s 2 -d 1 -p exp -e 800 -c 1 -i 1 -a 1 -x {0.0 5.0 1 ------- null}
+ -t 1.18988665379534 -s 0 -d 2 -p exp -e 800 -c 1 -i 3 -a 1 -x {0.0 5.0 3 ------- null}
- -t 1.19579332046201 -s 2 -d 1 -p exp -e 800 -c 1 -i 1 -a 1 -x {0.0 5.0 1 ------- null}
h -t 1.19579332046201 -s 2 -d 1 -p exp -e 800 -c 1 -i 1 -a 1 -x {0.0 5.0 -1 ------- null}
- -t 1.19660665379534 -s 0 -d 2 -p exp -e 800 -c 1 -i 3 -a 1 -x {0.0 5.0 3 ------- null}
h -t 1.19660665379534 -s 0 -d 2 -p exp -e 800 -c 1 -i 3 -a 1 -x {0.0 5.0 -1 ------- null}
r -t 1.19779332046201 -s 2 -d 1 -p exp -e 800 -c 1 -i 0 -a 1 -x {0.0 5.0 0 ------- null}
+ -t 1.19779332046201 -s 1 -d 3 -p exp -e 800 -c 1 -i 0 -a 1 -x {0.0 5.0 0 ------- null}
- -t 1.19779332046201 -s 1 -d 3 -p exp -e 800 -c 1 -i 0 -a 1 -x {0.0 5.0 0 ------- null}
h -t 1.19779332046201 -s 1 -d 3 -p exp -e 800 -c 1 -i 0 -a 1 -x {0.0 5.0 -1 ------- null}
+ -t 1.19788665379534 -s 0 -d 2 -p exp -e 800 -c 1 -i 4 -a 1 -x {0.0 5.0 4 ------- null}
r -t 1.19960665379534 -s 0 -d 2 -p exp -e 800 -c 1 -i 2 -a 1 -x {0.0 5.0 2 ------- null}
+ -t 1.19960665379534 -s 2 -d 1 -p exp -e 800 -c 1 -i 2 -a 1 -x {0.0 5.0 2 ------- null}
+ -t 1.20588665379534 -s 0 -d 2 -p exp -e 800 -c 1 -i 5 -a 1 -x {0.0 5.0 5 ------- null}
- -t 1.20684665379534 -s 0 -d 2 -p exp -e 800 -c 1 -i 4 -a 1 -x {0.0 5.0 4 ------- null}
h -t 1.20684665379534 -s 0 -d 2 -p exp -e 800 -c 1 -i 4 -a 1 -x {0.0 5.0 -1 ------- null}
r -t 1.20984665379534 -s 0 -d 2 -p exp -e 800 -c 1 -i 3 -a 1 -x {0.0 5.0 3 ------- null}
+ -t 1.20984665379534 -s 2 -d 1 -p exp -e 800 -c 1 -i 3 -a 1 -x {0.0 5.0 3 ------- null}
- -t 1.21245998712867 -s 2 -d 1 -p exp -e 800 -c 1 -i 2 -a 1 -x {0.0 5.0 2 ------- null}
h -t 1.21245998712867 -s 2 -d 1 -p exp -e 800 -c 1 -i 2 -a 1 -x {0.0 5.0 -1 ------- null}
+ -t 1.21388665379534 -s 0 -d 2 -p exp -e 800 -c 1 -i 6 -a 1 -x {0.0 5.0 6 ------- null}
r -t 1.21445998712867 -s 2 -d 1 -p exp -e 800 -c 1 -i 1 -a 1 -x {0.0 5.0 1 ------- null}
+ -t 1.21445998712867 -s 1 -d 3 -p exp -e 800 -c 1 -i 1 -a 1 -x {0.0 5.0 1 ------- null}
- -t 1.21708665379534 -s 0 -d 2 -p exp -e 800 -c 1 -i 5 -a 1 -x {0.0 5.0 5 ------- null}
h -t 1.21708665379534 -s 0 -d 2 -p exp -e 800 -c 1 -i 5 -a 1 -x {0.0 5.0 -1 ------- null}
r -t 1.22008665379534 -s 0 -d 2 -p exp -e 800 -c 1 -i 4 -a 1 -x {0.0 5.0 4 ------- null}
+ -t 1.22008665379534 -s 2 -d 1 -p exp -e 800 -c 1 -i 4 -a 1 -x {0.0 5.0 4 ------- null}
+ -t 1.22188665379534 -s 0 -d 2 -p exp -e 800 -c 1 -i 7 -a 1 -x {0.0 5.0 7 ------- null}
- -t 1.22279332046201 -s 1 -d 3 -p exp -e 800 -c 1 -i 1 -a 1 -x {0.0 5.0 1 ------- null}
h -t 1.22279332046201 -s 1 -d 3 -p exp -e 800 -c 1 -i 1 -a 1 -x {0.0 5.0 -1 ------- null}
r -t 1.22379332046201 -s 1 -d 3 -p exp -e 800 -c 1 -i 0 -a 1 -x {0.0 5.0 0 ------- null}
+ -t 1.22379332046201 -s 3 -d 5 -p exp -e 800 -c 1 -i 0 -a 1 -x {0.0 5.0 0 ------- null}
- -t 1.22379332046201 -s 3 -d 5 -p exp -e 800 -c 1 -i 0 -a 1 -x {0.0 5.0 0 ------- null}
h -t 1.22379332046201 -s 3 -d 5 -p exp -e 800 -c 1 -i 0 -a 1 -x {0.0 5.0 -1 ------- null}
r -t 1.22680356046201 -s 3 -d 5 -p exp -e 800 -c 1 -i 0 -a 1 -x {0.0 5.0 0 ------- null}
- -t 1.22732665379534 -s 0 -d 2 -p exp -e 800 -c 1 -i 6 -a 1 -x {0.0 5.0 6 ------- null}
h -t 1.22732665379534 -s 0 -d 2 -p exp -e 800 -c 1 -i 6 -a 1 -x {0.0 5.0 -1 ------- null}
- -t 1.22912665379534 -s 2 -d 1 -p exp -e 800 -c 1 -i 3 -a 1 -x {0.0 5.0 3 ------- null}
h -t 1.22912665379534 -s 2 -d 1 -p exp -e 800 -c 1 -i 3 -a 1 -x {0.0 5.0 -1 ------- null}
+ -t 1.22988665379534 -s 0 -d 2 -p exp -e 800 -c 1 -i 8 -a 1 -x {0.0 5.0 8 ------- null}
r -t 1.23032665379534 -s 0 -d 2 -p exp -e 800 -c 1 -i 5 -a 1 -x {0.0 5.0 5 ------- null}
+ -t 1.23032665379534 -s 2 -d 1 -p exp -e 800 -c 1 -i 5 -a 1 -x {0.0 5.0 5 ------- null}
r -t 1.23112665379534 -s 2 -d 1 -p exp -e 800 -c 1 -i 2 -a 1 -x {0.0 5.0 2 ------- null}
+ -t 1.23112665379534 -s 1 -d 3 -p exp -e 800 -c 1 -i 2 -a 1 -x {0.0 5.0 2 ------- null}
- -t 1.23756665379534 -s 0 -d 2 -p exp -e 800 -c 1 -i 7 -a 1 -x {0.0 5.0 7 ------- null}
h -t 1.23756665379534 -s 0 -d 2 -p exp -e 800 -c 1 -i 7 -a 1 -x {0.0 5.0 -1 ------- null}
+ -t 1.23788665379534 -s 0 -d 2 -p exp -e 800 -c 1 -i 9 -a 1 -x {0.0 5.0 9 ------- null}
r -t 1.24056665379534 -s 0 -d 2 -p exp -e 800 -c 1 -i 6 -a 1 -x {0.0 5.0 6 ------- null}
+ -t 1.24056665379534 -s 2 -d 1 -p exp -e 800 -c 1 -i 6 -a 1 -x {0.0 5.0 6 ------- null}
- -t 1.24579332046201 -s 2 -d 1 -p exp -e 800 -c 1 -i 4 -a 1 -x {0.0 5.0 4 ------- null}
h -t 1.24579332046201 -s 2 -d 1 -p exp -e 800 -c 1 -i 4 -a 1 -x {0.0 5.0 -1 ------- null}
+ -t 1.24588665379534 -s 0 -d 2 -p exp -e 800 -c 1 -i 10 -a 1 -x {0.0 5.0 10 ------- null}
- -t 1.24779332046201 -s 1 -d 3 -p exp -e 800 -c 1 -i 2 -a 1 -x {0.0 5.0 2 ------- null}
h -t 1.24779332046201 -s 1 -d 3 -p exp -e 800 -c 1 -i 2 -a 1 -x {0.0 5.0 -1 ------- null}
r -t 1.24779332046201 -s 2 -d 1 -p exp -e 800 -c 1 -i 3 -a 1 -x {0.0 5.0 3 ------- null}
+ -t 1.24779332046201 -s 1 -d 3 -p exp -e 800 -c 1 -i 3 -a 1 -x {0.0 5.0 3 ------- null}
- -t 1.24780665379534 -s 0 -d 2 -p exp -e 800 -c 1 -i 8 -a 1 -x {0.0 5.0 8 ------- null}
h -t 1.24780665379534 -s 0 -d 2 -p exp -e 800 -c 1 -i 8 -a 1 -x {0.0 5.0 -1 ------- null}
r -t 1.24879332046201 -s 1 -d 3 -p exp -e 800 -c 1 -i 1 -a 1 -x {0.0 5.0 1 ------- null}
+ -t 1.24879332046201 -s 3 -d 5 -p exp -e 800 -c 1 -i 1 -a 1 -x {0.0 5.0 1 ------- null}
- -t 1.24879332046201 -s 3 -d 5 -p exp -e 800 -c 1 -i 1 -a 1 -x {0.0 5.0 1 ------- null}
h -t 1.24879332046201 -s 3 -d 5 -p exp -e 800 -c 1 -i 1 -a 1 -x {0.0 5.0 -1 ------- null}
r -t 1.25080665379534 -s 0 -d 2 -p exp -e 800 -c 1 -i 7 -a 1 -x {0.0 5.0 7 ------- null}
+ -t 1.25080665379534 -s 2 -d 1 -p exp -e 800 -c 1 -i 7 -a 1 -x {0.0 5.0 7 ------- null}
r -t 1.25180356046201 -s 3 -d 5 -p exp -e 800 -c 1 -i 1 -a 1 -x {0.0 5.0 1 ------- null}
+ -t 1.25388665379534 -s 0 -d 2 -p exp -e 800 -c 1 -i 11 -a 1 -x {0.0 5.0 11 ------- null}
- -t 1.25804665379534 -s 0 -d 2 -p exp -e 800 -c 1 -i 9 -a 1 -x {0.0 5.0 9 ------- null}
h -t 1.25804665379534 -s 0 -d 2 -p exp -e 800 -c 1 -i 9 -a 1 -x {0.0 5.0 -1 ------- null}
+ -t 1.25852502459519 -s 0 -d 2 -p pareto -e 300 -c 2 -i 12 -a 2 -x {0.1 3.0 0 ------- null}
r -t 1.26104665379534 -s 0 -d 2 -p exp -e 800 -c 1 -i 8 -a 1 -x {0.0 5.0 8 ------- null}
+ -t 1.26104665379534 -s 2 -d 1 -p exp -e 800 -c 1 -i 8 -a 1 -x {0.0 5.0 8 ------- null}
+ -t 1.26188665379534 -s 0 -d 2 -p exp -e 800 -c 1 -i 13 -a 1 -x {0.0 5.0 12 ------- null}
- -t 1.26245998712867 -s 2 -d 1 -p exp -e 800 -c 1 -i 5 -a 1 -x {0.0 5.0 5 ------- null}
h -t 1.26245998712867 -s 2 -d 1 -p exp -e 800 -c 1 -i 5 -a 1 -x {0.0 5.0 -1 ------- null}
r -t 1.26445998712867 -s 2 -d 1 -p exp -e 800 -c 1 -i 4 -a 1 -x {0.0 5.0 4 ------- null}
+ -t 1.26445998712867 -s 1 -d 3 -p exp -e 800 -c 1 -i 4 -a 1 -x {0.0 5.0 4 ------- null}
- -t 1.26828665379534 -s 0 -d 2 -p exp -e 800 -c 1 -i 10 -a 1 -x {0.0 5.0 10 ------- null}
h -t 1.26828665379534 -s 0 -d 2 -p exp -e 800 -c 1 -i 10 -a 1 -x {0.0 5.0 -1 ------- null}
+ -t 1.26988665379534 -s 0 -d 2 -p exp -e 800 -c 1 -i 14 -a 1 -x {0.0 5.0 13 ------- null}
+ -t 1.27052502459519 -s 0 -d 2 -p pareto -e 300 -c 2 -i 15 -a 2 -x {0.1 3.0 1 ------- null}
r -t 1.27128665379534 -s 0 -d 2 -p exp -e 800 -c 1 -i 9 -a 1 -x {0.0 5.0 9 ------- null}
+ -t 1.27128665379534 -s 2 -d 1 -p exp -e 800 -c 1 -i 9 -a 1 -x {0.0 5.0 9 ------- null}
- -t 1.27279332046201 -s 1 -d 3 -p exp -e 800 -c 1 -i 3 -a 1 -x {0.0 5.0 3 ------- null}
h -t 1.27279332046201 -s 1 -d 3 -p exp -e 800 -c 1 -i 3 -a 1 -x {0.0 5.0 -1 ------- null}
r -t 1.27379332046201 -s 1 -d 3 -p exp -e 800 -c 1 -i 2 -a 1 -x {0.0 5.0 2 ------- null}
+ -t 1.27379332046201 -s 3 -d 5 -p exp -e 800 -c 1 -i 2 -a 1 -x {0.0 5.0 2 ------- null}
- -t 1.27379332046201 -s 3 -d 5 -p exp -e 800 -c 1 -i 2 -a 1 -x {0.0 5.0 2 ------- null}
h -t 1.27379332046201 -s 3 -d 5 -p exp -e 800 -c 1 -i 2 -a 1 -x {0.0 5.0 -1 ------- null}
r -t 1.27680356046201 -s 3 -d 5 -p exp -e 800 -c 1 -i 2 -a 1 -x {0.0 5.0 2 ------- null}
+ -t 1.27788665379534 -s 0 -d 2 -p exp -e 800 -c 1 -i 16 -a 1 -x {0.0 5.0 14 ------- null}
- -t 1.27852665379534 -s 0 -d 2 -p exp -e 800 -c 1 -i 11 -a 1 -x {0.0 5.0 11 ------- null}
h -t 1.27852665379534 -s 0 -d 2 -p exp -e 800 -c 1 -i 11 -a 1 -x {0.0 5.0 -1 ------- null}
- -t 1.27912665379534 -s 2 -d 1 -p exp -e 800 -c 1 -i 6 -a 1 -x {0.0 5.0 6 ------- null}
h -t 1.27912665379534 -s 2 -d 1 -p exp -e 800 -c 1 -i 6 -a 1 -x {0.0 5.0 -1 ------- null}
r -t 1.28112665379534 -s 2 -d 1 -p exp -e 800 -c 1 -i 5 -a 1 -x {0.0 5.0 5 ------- null}
+ -t 1.28112665379534 -s 1 -d 3 -p exp -e 800 -c 1 -i 5 -a 1 -x {0.0 5.0 5 ------- null}
r -t 1.28152665379534 -s 0 -d 2 -p exp -e 800 -c 1 -i 10 -a 1 -x {0.0 5.0 10 ------- null}
+ -t 1.28152665379534 -s 2 -d 1 -p exp -e 800 -c 1 -i 10 -a 1 -x {0.0 5.0 10 ------- null}
+ -t 1.28252502459519 -s 0 -d 2 -p pareto -e 300 -c 2 -i 17 -a 2 -x {0.1 3.0 2 ------- null}
+ -t 1.28588665379534 -s 0 -d 2 -p exp -e 800 -c 1 -i 18 -a 1 -x {0.0 5.0 15 ------- null}
- -t 1.28876665379534 -s 0 -d 2 -p pareto -e 300 -c 2 -i 12 -a 2 -x {0.1 3.0 0 ------- null}
h -t 1.28876665379534 -s 0 -d 2 -p pareto -e 300 -c 2 -i 12 -a 2 -x {0.1 3.0 -1 ------- null}
r -t 1.29176665379534 -s 0 -d 2 -p exp -e 800 -c 1 -i 11 -a 1 -x {0.0 5.0 11 ------- null}
+ -t 1.29176665379534 -s 2 -d 1 -p exp -e 800 -c 1 -i 11 -a 1 -x {0.0 5.0 11 ------- null}
- -t 1.29260665379534 -s 0 -d 2 -p exp -e 800 -c 1 -i 13 -a 1 -x {0.0 5.0 12 ------- null}
h -t 1.29260665379534 -s 0 -d 2 -p exp -e 800 -c 1 -i 13 -a 1 -x {0.0 5.0 -1 ------- null}
+ -t 1.29452502459519 -s 0 -d 2 -p pareto -e 300 -c 2 -i 19 -a 2 -x {0.1 3.0 3 ------- null}
r -t 1.29560665379534 -s 0 -d 2 -p pareto -e 300 -c 2 -i 12 -a 2 -x {0.1 3.0 0 ------- null}
+ -t 1.29560665379534 -s 2 -d 1 -p pareto -e 300 -c 2 -i 12 -a 2 -x {0.1 3.0 0 ------- null}
- -t 1.29579332046201 -s 2 -d 1 -p exp -e 800 -c 1 -i 7 -a 1 -x {0.0 5.0 7 ------- null}
h -t 1.29579332046201 -s 2 -d 1 -p exp -e 800 -c 1 -i 7 -a 1 -x {0.0 5.0 -1 ------- null}
- -t 1.29779332046201 -s 1 -d 3 -p exp -e 800 -c 1 -i 4 -a 1 -x {0.0 5.0 4 ------- null}
h -t 1.29779332046201 -s 1 -d 3 -p exp -e 800 -c 1 -i 4 -a 1 -x {0.0 5.0 -1 ------- null}
r -t 1.29779332046201 -s 2 -d 1 -p exp -e 800 -c 1 -i 6 -a 1 -x {0.0 5.0 6 ------- null}
+ -t 1.29779332046201 -s 1 -d 3 -p exp -e 800 -c 1 -i 6 -a 1 -x {0.0 5.0 6 ------- null}
r -t 1.29879332046201 -s 1 -d 3 -p exp -e 800 -c 1 -i 3 -a 1 -x {0.0 5.0 3 ------- null}
+ -t 1.29879332046201 -s 3 -d 5 -p exp -e 800 -c 1 -i 3 -a 1 -x {0.0 5.0 3 ------- null}
- -t 1.29879332046201 -s 3 -d 5 -p exp -e 800 -c 1 -i 3 -a 1 -x {0.0 5.0 3 ------- null}
h -t 1.29879332046201 -s 3 -d 5 -p exp -e 800 -c 1 -i 3 -a 1 -x {0.0 5.0 -1 ------- null}
r -t 1.30180356046201 -s 3 -d 5 -p exp -e 800 -c 1 -i 3 -a 1 -x {0.0 5.0 3 ------- null}
- -t 1.30284665379534 -s 0 -d 2 -p exp -e 800 -c 1 -i 14 -a 1 -x {0.0 5.0 13 ------- null}
h -t 1.30284665379534 -s 0 -d 2 -p exp -e 800 -c 1 -i 14 -a 1 -x {0.0 5.0 -1 ------- null}
r -t 1.30584665379534 -s 0 -d 2 -p exp -e 800 -c 1 -i 13 -a 1 -x {0.0 5.0 12 ------- null}
+ -t 1.30584665379534 -s 2 -d 1 -p exp -e 800 -c 1 -i 13 -a 1 -x {0.0 5.0 12 ------- null}
+ -t 1.30652502459519 -s 0 -d 2 -p pareto -e 300 -c 2 -i 20 -a 2 -x {0.1 3.0 4 ------- null}
+ -t 1.30845964027916 -s 0 -d 2 -p exp -e 800 -c 1 -i 21 -a 1 -x {0.0 5.0 16 ------- null}
- -t 1.31245998712867 -s 2 -d 1 -p exp -e 800 -c 1 -i 8 -a 1 -x {0.0 5.0 8 ------- null}
h -t 1.31245998712867 -s 2 -d 1 -p exp -e 800 -c 1 -i 8 -a 1 -x {0.0 5.0 -1 ------- null}
- -t 1.31308665379534 -s 0 -d 2 -p pareto -e 300 -c 2 -i 15 -a 2 -x {0.1 3.0 1 ------- null}
h -t 1.31308665379534 -s 0 -d 2 -p pareto -e 300 -c 2 -i 15 -a 2 -x {0.1 3.0 -1 ------- null}
r -t 1.31445998712867 -s 2 -d 1 -p exp -e 800 -c 1 -i 7 -a 1 -x {0.0 5.0 7 ------- null}
+ -t 1.31445998712867 -s 1 -d 3 -p exp -e 800 -c 1 -i 7 -a 1 -x {0.0 5.0 7 ------- null}
r -t 1.31608665379534 -s 0 -d 2 -p exp -e 800 -c 1 -i 14 -a 1 -x {0.0 5.0 13 ------- null}
+ -t 1.31608665379534 -s 2 -d 1 -p exp -e 800 -c 1 -i 14 -a 1 -x {0.0 5.0 13 ------- null}
+ -t 1.31645964027916 -s 0 -d 2 -p exp -e 800 -c 1 -i 22 -a 1 -x {0.0 5.0 17 ------- null}
- -t 1.31692665379534 -s 0 -d 2 -p exp -e 800 -c 1 -i 16 -a 1 -x {0.0 5.0 14 ------- null}
h -t 1.31692665379534 -s 0 -d 2 -p exp -e 800 -c 1 -i 16 -a 1 -x {0.0 5.0 -1 ------- null}
+ -t 1.31852502459519 -s 0 -d 2 -p pareto -e 300 -c 2 -i 23 -a 2 -x {0.1 3.0 5 ------- null}
r -t 1.31992665379534 -s 0 -d 2 -p pareto -e 300 -c 2 -i 15 -a 2 -x {0.1 3.0 1 ------- null}
+ -t 1.31992665379534 -s 2 -d 1 -p pareto -e 300 -c 2 -i 15 -a 2 -x {0.1 3.0 1 ------- null}
- -t 1.32279332046201 -s 1 -d 3 -p exp -e 800 -c 1 -i 5 -a 1 -x {0.0 5.0 5 ------- null}
h -t 1.32279332046201 -s 1 -d 3 -p exp -e 800 -c 1 -i 5 -a 1 -x {0.0 5.0 -1 ------- null}
r -t 1.32379332046201 -s 1 -d 3 -p exp -e 800 -c 1 -i 4 -a 1 -x {0.0 5.0 4 ------- null}
+ -t 1.32379332046201 -s 3 -d 5 -p exp -e 800 -c 1 -i 4 -a 1 -x {0.0 5.0 4 ------- null}
- -t 1.32379332046201 -s 3 -d 5 -p exp -e 800 -c 1 -i 4 -a 1 -x {0.0 5.0 4 ------- null}
h -t 1.32379332046201 -s 3 -d 5 -p exp -e 800 -c 1 -i 4 -a 1 -x {0.0 5.0 -1 ------- null}
+ -t 1.32445964027916 -s 0 -d 2 -p exp -e 800 -c 1 -i 24 -a 1 -x {0.0 5.0 18 ------- null}
r -t 1.32680356046201 -s 3 -d 5 -p exp -e 800 -c 1 -i 4 -a 1 -x {0.0 5.0 4 ------- null}
- -t 1.32716665379534 -s 0 -d 2 -p pareto -e 300 -c 2 -i 17 -a 2 -x {0.1 3.0 2 ------- null}
h -t 1.32716665379534 -s 0 -d 2 -p pareto -e 300 -c 2 -i 17 -a 2 -x {0.1 3.0 -1 ------- null}
- -t 1.32912665379534 -s 2 -d 1 -p exp -e 800 -c 1 -i 9 -a 1 -x {0.0 5.0 9 ------- null}
h -t 1.32912665379534 -s 2 -d 1 -p exp -e 800 -c 1 -i 9 -a 1 -x {0.0 5.0 -1 ------- null}
r -t 1.33016665379534 -s 0 -d 2 -p exp -e 800 -c 1 -i 16 -a 1 -x {0.0 5.0 14 ------- null}
+ -t 1.33016665379534 -s 2 -d 1 -p exp -e 800 -c 1 -i 16 -a 1 -x {0.0 5.0 14 ------- null}
+ -t 1.33052502459519 -s 0 -d 2 -p pareto -e 300 -c 2 -i 25 -a 2 -x {0.1 3.0 6 ------- null}
- -t 1.33100665379534 -s 0 -d 2 -p exp -e 800 -c 1 -i 18 -a 1 -x {0.0 5.0 15 ------- null}
h -t 1.33100665379534 -s 0 -d 2 -p exp -e 800 -c 1 -i 18 -a 1 -x {0.0 5.0 -1 ------- null}
r -t 1.33112665379534 -s 2 -d 1 -p exp -e 800 -c 1 -i 8 -a 1 -x {0.0 5.0 8 ------- null}
+ -t 1.33112665379534 -s 1 -d 3 -p exp -e 800 -c 1 -i 8 -a 1 -x {0.0 5.0 8 ------- null}
r -t 1.33400665379534 -s 0 -d 2 -p pareto -e 300 -c 2 -i 17 -a 2 -x {0.1 3.0 2 ------- null}
+ -t 1.33400665379534 -s 2 -d 1 -p pareto -e 300 -c 2 -i 17 -a 2 -x {0.1 3.0 2 ------- null}
- -t 1.34124665379534 -s 0 -d 2 -p pareto -e 300 -c 2 -i 19 -a 2 -x {0.1 3.0 3 ------- null}
h -t 1.34124665379534 -s 0 -d 2 -p pareto -e 300 -c 2 -i 19 -a 2 -x {0.1 3.0 -1 ------- null}
+ -t 1.34252502459519 -s 0 -d 2 -p pareto -e 300 -c 2 -i 26 -a 2 -x {0.1 3.0 7 ------- null}
r -t 1.34424665379534 -s 0 -d 2 -p exp -e 800 -c 1 -i 18 -a 1 -x {0.0 5.0 15 ------- null}
+ -t 1.34424665379534 -s 2 -d 1 -p exp -e 800 -c 1 -i 18 -a 1 -x {0.0 5.0 15 ------- null}
- -t 1.34508665379534 -s 0 -d 2 -p pareto -e 300 -c 2 -i 20 -a 2 -x {0.1 3.0 4 ------- null}
h -t 1.34508665379534 -s 0 -d 2 -p pareto -e 300 -c 2 -i 20 -a 2 -x {0.1 3.0 -1 ------- null}
+ -t 1.34563889063463 -s 0 -d 2 -p exp -e 800 -c 1 -i 27 -a 1 -x {0.0 5.0 19 ------- null}
- -t 1.34579332046201 -s 2 -d 1 -p exp -e 800 -c 1 -i 10 -a 1 -x {0.0 5.0 10 ------- null}
h -t 1.34579332046201 -s 2 -d 1 -p exp -e 800 -c 1 -i 10 -a 1 -x {0.0 5.0 -1 ------- null}
- -t 1.34779332046201 -s 1 -d 3 -p exp -e 800 -c 1 -i 6 -a 1 -x {0.0 5.0 6 ------- null}
h -t 1.34779332046201 -s 1 -d 3 -p exp -e 800 -c 1 -i 6 -a 1 -x {0.0 5.0 -1 ------- null}
r -t 1.34779332046201 -s 2 -d 1 -p exp -e 800 -c 1 -i 9 -a 1 -x {0.0 5.0 9 ------- null}
+ -t 1.34779332046201 -s 1 -d 3 -p exp -e 800 -c 1 -i 9 -a 1 -x {0.0 5.0 9 ------- null}
r -t 1.34808665379534 -s 0 -d 2 -p pareto -e 300 -c 2 -i 19 -a 2 -x {0.1 3.0 3 ------- null}
+ -t 1.34808665379534 -s 2 -d 1 -p pareto -e 300 -c 2 -i 19 -a 2 -x {0.1 3.0 3 ------- null}
r -t 1.34879332046201 -s 1 -d 3 -p exp -e 800 -c 1 -i 5 -a 1 -x {0.0 5.0 5 ------- null}
+ -t 1.34879332046201 -s 3 -d 5 -p exp -e 800 -c 1 -i 5 -a 1 -x {0.0 5.0 5 ------- null}
- -t 1.34879332046201 -s 3 -d 5 -p exp -e 800 -c 1 -i 5 -a 1 -x {0.0 5.0 5 ------- null}
h -t 1.34879332046201 -s 3 -d 5 -p exp -e 800 -c 1 -i 5 -a 1 -x {0.0 5.0 -1 ------- null}
- -t 1.34892665379534 -s 0 -d 2 -p exp -e 800 -c 1 -i 21 -a 1 -x {0.0 5.0 16 ------- null}
h -t 1.34892665379534 -s 0 -d 2 -p exp -e 800 -c 1 -i 21 -a 1 -x {0.0 5.0 -1 ------- null}
r -t 1.35180356046201 -s 3 -d 5 -p exp -e 800 -c 1 -i 5 -a 1 -x {0.0 5.0 5 ------- null}
r -t 1.35192665379534 -s 0 -d 2 -p pareto -e 300 -c 2 -i 20 -a 2 -x {0.1 3.0 4 ------- null}
+ -t 1.35192665379534 -s 2 -d 1 -p pareto -e 300 -c 2 -i 20 -a 2 -x {0.1 3.0 4 ------- null}
+ -t 1.35363889063463 -s 0 -d 2 -p exp -e 800 -c 1 -i 28 -a 1 -x {0.0 5.0 20 ------- null}
+ -t 1.35452502459519 -s 0 -d 2 -p pareto -e 300 -c 2 -i 29 -a 2 -x {0.1 3.0 8 ------- null}
- -t 1.35916665379534 -s 0 -d 2 -p exp -e 800 -c 1 -i 22 -a 1 -x {0.0 5.0 17 ------- null}
h -t 1.35916665379534 -s 0 -d 2 -p exp -e 800 -c 1 -i 22 -a 1 -x {0.0 5.0 -1 ------- null}
+ -t 1.36163889063463 -s 0 -d 2 -p exp -e 800 -c 1 -i 30 -a 1 -x {0.0 5.0 21 ------- null}
r -t 1.36216665379534 -s 0 -d 2 -p exp -e 800 -c 1 -i 21 -a 1 -x {0.0 5.0 16 ------- null}
+ -t 1.36216665379534 -s 2 -d 1 -p exp -e 800 -c 1 -i 21 -a 1 -x {0.0 5.0 16 ------- null}
- -t 1.36245998712867 -s 2 -d 1 -p exp -e 800 -c 1 -i 11 -a 1 -x {0.0 5.0 11 ------- null}
h -t 1.36245998712867 -s 2 -d 1 -p exp -e 800 -c 1 -i 11 -a 1 -x {0.0 5.0 -1 ------- null}
r -t 1.36445998712867 -s 2 -d 1 -p exp -e 800 -c 1 -i 10 -a 1 -x {0.0 5.0 10 ------- null}
+ -t 1.36445998712867 -s 1 -d 3 -p exp -e 800 -c 1 -i 10 -a 1 -x {0.0 5.0 10 ------- null}
+ -t 1.36652502459519 -s 0 -d 2 -p pareto -e 300 -c 2 -i 31 -a 2 -x {0.1 3.0 9 ------- null}
- -t 1.36940665379534 -s 0 -d 2 -p pareto -e 300 -c 2 -i 23 -a 2 -x {0.1 3.0 5 ------- null}
h -t 1.36940665379534 -s 0 -d 2 -p pareto -e 300 -c 2 -i 23 -a 2 -x {0.1 3.0 -1 ------- null}
+ -t 1.36963889063463 -s 0 -d 2 -p exp -e 800 -c 1 -i 32 -a 1 -x {0.0 5.0 22 ------- null}
r -t 1.37240665379534 -s 0 -d 2 -p exp -e 800 -c 1 -i 22 -a 1 -x {0.0 5.0 17 ------- null}
+ -t 1.37240665379534 -s 2 -d 1 -p exp -e 800 -c 1 -i 22 -a 1 -x {0.0 5.0 17 ------- null}
- -t 1.37279332046201 -s 1 -d 3 -p exp -e 800 -c 1 -i 7 -a 1 -x {0.0 5.0 7 ------- null}
h -t 1.37279332046201 -s 1 -d 3 -p exp -e 800 -c 1 -i 7 -a 1 -x {0.0 5.0 -1 ------- null}
- -t 1.37324665379534 -s 0 -d 2 -p exp -e 800 -c 1 -i 24 -a 1 -x {0.0 5.0 18 ------- null}
h -t 1.37324665379534 -s 0 -d 2 -p exp -e 800 -c 1 -i 24 -a 1 -x {0.0 5.0 -1 ------- null}
r -t 1.37379332046201 -s 1 -d 3 -p exp -e 800 -c 1 -i 6 -a 1 -x {0.0 5.0 6 ------- null}
+ -t 1.37379332046201 -s 3 -d 5 -p exp -e 800 -c 1 -i 6 -a 1 -x {0.0 5.0 6 ------- null}
- -t 1.37379332046201 -s 3 -d 5 -p exp -e 800 -c 1 -i 6 -a 1 -x {0.0 5.0 6 ------- null}
h -t 1.37379332046201 -s 3 -d 5 -p exp -e 800 -c 1 -i 6 -a 1 -x {0.0 5.0 -1 ------- null}
r -t 1.37624665379534 -s 0 -d 2 -p pareto -e 300 -c 2 -i 23 -a 2 -x {0.1 3.0 5 ------- null}
+ -t 1.37624665379534 -s 2 -d 1 -p pareto -e 300 -c 2 -i 23 -a 2 -x {0.1 3.0 5 ------- null}
r -t 1.37680356046201 -s 3 -d 5 -p exp -e 800 -c 1 -i 6 -a 1 -x {0.0 5.0 6 ------- null}
+ -t 1.37852502459519 -s 0 -d 2 -p pareto -e 300 -c 2 -i 33 -a 2 -x {0.1 3.0 10 ------- null}
- -t 1.37912665379534 -s 2 -d 1 -p pareto -e 300 -c 2 -i 12 -a 2 -x {0.1 3.0 0 ------- null}
h -t 1.37912665379534 -s 2 -d 1 -p pareto -e 300 -c 2 -i 12 -a 2 -x {0.1 3.0 -1 ------- null}
r -t 1.38112665379534 -s 2 -d 1 -p exp -e 800 -c 1 -i 11 -a 1 -x {0.0 5.0 11 ------- null}
+ -t 1.38112665379534 -s 1 -d 3 -p exp -e 800 -c 1 -i 11 -a 1 -x {0.0 5.0 11 ------- null}
- -t 1.38348665379534 -s 0 -d 2 -p pareto -e 300 -c 2 -i 25 -a 2 -x {0.1 3.0 6 ------- null}
h -t 1.38348665379534 -s 0 -d 2 -p pareto -e 300 -c 2 -i 25 -a 2 -x {0.1 3.0 -1 ------- null}
- -t 1.38537665379534 -s 2 -d 1 -p exp -e 800 -c 1 -i 13 -a 1 -x {0.0 5.0 12 ------- null}
h -t 1.38537665379534 -s 2 -d 1 -p exp -e 800 -c 1 -i 13 -a 1 -x {0.0 5.0 -1 ------- null}
r -t 1.38648665379534 -s 0 -d 2 -p exp -e 800 -c 1 -i 24 -a 1 -x {0.0 5.0 18 ------- null}
+ -t 1.38648665379534 -s 2 -d 1 -p exp -e 800 -c 1 -i 24 -a 1 -x {0.0 5.0 18 ------- null}
- -t 1.38732665379534 -s 0 -d 2 -p pareto -e 300 -c 2 -i 26 -a 2 -x {0.1 3.0 7 ------- null}
h -t 1.38732665379534 -s 0 -d 2 -p pareto -e 300 -c 2 -i 26 -a 2 -x {0.1 3.0 -1 ------- null}
r -t 1.38737665379534 -s 2 -d 1 -p pareto -e 300 -c 2 -i 12 -a 2 -x {0.1 3.0 0 ------- null}
+ -t 1.38737665379534 -s 1 -d 3 -p pareto -e 300 -c 2 -i 12 -a 2 -x {0.1 3.0 0 ------- null}
r -t 1.39032665379534 -s 0 -d 2 -p pareto -e 300 -c 2 -i 25 -a 2 -x {0.1 3.0 6 ------- null}
+ -t 1.39032665379534 -s 2 -d 1 -p pareto -e 300 -c 2 -i 25 -a 2 -x {0.1 3.0 6 ------- null}
+ -t 1.39052502459519 -s 0 -d 2 -p pareto -e 300 -c 2 -i 34 -a 2 -x {0.1 3.0 11 ------- null}
- -t 1.39116665379534 -s 0 -d 2 -p exp -e 800 -c 1 -i 27 -a 1 -x {0.0 5.0 19 ------- null}
h -t 1.39116665379534 -s 0 -d 2 -p exp -e 800 -c 1 -i 27 -a 1 -x {0.0 5.0 -1 ------- null}
r -t 1.39416665379534 -s 0 -d 2 -p pareto -e 300 -c 2 -i 26 -a 2 -x {0.1 3.0 7 ------- null}
+ -t 1.39416665379534 -s 2 -d 1 -p pareto -e 300 -c 2 -i 26 -a 2 -x {0.1 3.0 7 ------- null}
- -t 1.39779332046201 -s 1 -d 3 -p exp -e 800 -c 1 -i 8 -a 1 -x {0.0 5.0 8 ------- null}
h -t 1.39779332046201 -s 1 -d 3 -p exp -e 800 -c 1 -i 8 -a 1 -x {0.0 5.0 -1 ------- null}
r -t 1.39879332046201 -s 1 -d 3 -p exp -e 800 -c 1 -i 7 -a 1 -x {0.0 5.0 7 ------- null}
+ -t 1.39879332046201 -s 3 -d 5 -p exp -e 800 -c 1 -i 7 -a 1 -x {0.0 5.0 7 ------- null}
- -t 1.39879332046201 -s 3 -d 5 -p exp -e 800 -c 1 -i 7 -a 1 -x {0.0 5.0 7 ------- null}
h -t 1.39879332046201 -s 3 -d 5 -p exp -e 800 -c 1 -i 7 -a 1 -x {0.0 5.0 -1 ------- null}
- -t 1.40140665379534 -s 0 -d 2 -p exp -e 800 -c 1 -i 28 -a 1 -x {0.0 5.0 20 ------- null}
h -t 1.40140665379534 -s 0 -d 2 -p exp -e 800 -c 1 -i 28 -a 1 -x {0.0 5.0 -1 ------- null}
r -t 1.40180356046201 -s 3 -d 5 -p exp -e 800 -c 1 -i 7 -a 1 -x {0.0 5.0 7 ------- null}
- -t 1.40204332046201 -s 2 -d 1 -p exp -e 800 -c 1 -i 14 -a 1 -x {0.0 5.0 13 ------- null}
h -t 1.40204332046201 -s 2 -d 1 -p exp -e 800 -c 1 -i 14 -a 1 -x {0.0 5.0 -1 ------- null}
+ -t 1.40252502459519 -s 0 -d 2 -p pareto -e 300 -c 2 -i 35 -a 2 -x {0.1 3.0 12 ------- null}
r -t 1.40404332046201 -s 2 -d 1 -p exp -e 800 -c 1 -i 13 -a 1 -x {0.0 5.0 12 ------- null}
+ -t 1.40404332046201 -s 1 -d 3 -p exp -e 800 -c 1 -i 13 -a 1 -x {0.0 5.0 12 ------- null}
r -t 1.40440665379534 -s 0 -d 2 -p exp -e 800 -c 1 -i 27 -a 1 -x {0.0 5.0 19 ------- null}
+ -t 1.40440665379534 -s 2 -d 1 -p exp -e 800 -c 1 -i 27 -a 1 -x {0.0 5.0 19 ------- null}
+ -t 1.40676291350275 -s 0 -d 2 -p exp -e 800 -c 1 -i 36 -a 1 -x {0.0 5.0 23 ------- null}
- -t 1.41164665379534 -s 0 -d 2 -p pareto -e 300 -c 2 -i 29 -a 2 -x {0.1 3.0 8 ------- null}
h -t 1.41164665379534 -s 0 -d 2 -p pareto -e 300 -c 2 -i 29 -a 2 -x {0.1 3.0 -1 ------- null}
+ -t 1.41452502459519 -s 0 -d 2 -p pareto -e 300 -c 2 -i 37 -a 2 -x {0.1 3.0 13 ------- null}
r -t 1.41464665379534 -s 0 -d 2 -p exp -e 800 -c 1 -i 28 -a 1 -x {0.0 5.0 20 ------- null}
+ -t 1.41464665379534 -s 2 -d 1 -p exp -e 800 -c 1 -i 28 -a 1 -x {0.0 5.0 20 ------- null}
+ -t 1.41476291350275 -s 0 -d 2 -p exp -e 800 -c 1 -i 38 -a 1 -x {0.0 5.0 24 ------- null}
- -t 1.41548665379534 -s 0 -d 2 -p exp -e 800 -c 1 -i 30 -a 1 -x {0.0 5.0 21 ------- null}
h -t 1.41548665379534 -s 0 -d 2 -p exp -e 800 -c 1 -i 30 -a 1 -x {0.0 5.0 -1 ------- null}
r -t 1.41848665379534 -s 0 -d 2 -p pareto -e 300 -c 2 -i 29 -a 2 -x {0.1 3.0 8 ------- null}
+ -t 1.41848665379534 -s 2 -d 1 -p pareto -e 300 -c 2 -i 29 -a 2 -x {0.1 3.0 8 ------- null}
- -t 1.41870998712867 -s 2 -d 1 -p pareto -e 300 -c 2 -i 15 -a 2 -x {0.1 3.0 1 ------- null}
h -t 1.41870998712867 -s 2 -d 1 -p pareto -e 300 -c 2 -i 15 -a 2 -x {0.1 3.0 -1 ------- null}
r -t 1.42070998712867 -s 2 -d 1 -p exp -e 800 -c 1 -i 14 -a 1 -x {0.0 5.0 13 ------- null}
+ -t 1.42070998712867 -s 1 -d 3 -p exp -e 800 -c 1 -i 14 -a 1 -x {0.0 5.0 13 ------- null}
+ -t 1.42276291350275 -s 0 -d 2 -p exp -e 800 -c 1 -i 39 -a 1 -x {0.0 5.0 25 ------- null}
- -t 1.42279332046201 -s 1 -d 3 -p exp -e 800 -c 1 -i 9 -a 1 -x {0.0 5.0 9 ------- null}
h -t 1.42279332046201 -s 1 -d 3 -p exp -e 800 -c 1 -i 9 -a 1 -x {0.0 5.0 -1 ------- null}
r -t 1.42379332046201 -s 1 -d 3 -p exp -e 800 -c 1 -i 8 -a 1 -x {0.0 5.0 8 ------- null}
+ -t 1.42379332046201 -s 3 -d 5 -p exp -e 800 -c 1 -i 8 -a 1 -x {0.0 5.0 8 ------- null}
- -t 1.42379332046201 -s 3 -d 5 -p exp -e 800 -c 1 -i 8 -a 1 -x {0.0 5.0 8 ------- null}
h -t 1.42379332046201 -s 3 -d 5 -p exp -e 800 -c 1 -i 8 -a 1 -x {0.0 5.0 -1 ------- null}
- -t 1.42495998712867 -s 2 -d 1 -p exp -e 800 -c 1 -i 16 -a 1 -x {0.0 5.0 14 ------- null}
h -t 1.42495998712867 -s 2 -d 1 -p exp -e 800 -c 1 -i 16 -a 1 -x {0.0 5.0 -1 ------- null}
- -t 1.42572665379534 -s 0 -d 2 -p pareto -e 300 -c 2 -i 31 -a 2 -x {0.1 3.0 9 ------- null}
h -t 1.42572665379534 -s 0 -d 2 -p pareto -e 300 -c 2 -i 31 -a 2 -x {0.1 3.0 -1 ------- null}
+ -t 1.42652502459519 -s 0 -d 2 -p pareto -e 300 -c 2 -i 40 -a 2 -x {0.1 3.0 14 ------- null}
r -t 1.42680356046201 -s 3 -d 5 -p exp -e 800 -c 1 -i 8 -a 1 -x {0.0 5.0 8 ------- null}
r -t 1.42695998712867 -s 2 -d 1 -p pareto -e 300 -c 2 -i 15 -a 2 -x {0.1 3.0 1 ------- null}
+ -t 1.42695998712867 -s 1 -d 3 -p pareto -e 300 -c 2 -i 15 -a 2 -x {0.1 3.0 1 ------- null}
r -t 1.42872665379534 -s 0 -d 2 -p exp -e 800 -c 1 -i 30 -a 1 -x {0.0 5.0 21 ------- null}
+ -t 1.42872665379534 -s 2 -d 1 -p exp -e 800 -c 1 -i 30 -a 1 -x {0.0 5.0 21 ------- null}
- -t 1.42956665379534 -s 0 -d 2 -p exp -e 800 -c 1 -i 32 -a 1 -x {0.0 5.0 22 ------- null}
h -t 1.42956665379534 -s 0 -d 2 -p exp -e 800 -c 1 -i 32 -a 1 -x {0.0 5.0 -1 ------- null}
+ -t 1.43076291350275 -s 0 -d 2 -p exp -e 800 -c 1 -i 41 -a 1 -x {0.0 5.0 26 ------- null}
r -t 1.43256665379534 -s 0 -d 2 -p pareto -e 300 -c 2 -i 31 -a 2 -x {0.1 3.0 9 ------- null}
+ -t 1.43256665379534 -s 2 -d 1 -p pareto -e 300 -c 2 -i 31 -a 2 -x {0.1 3.0 9 ------- null}
+ -t 1.43852502459519 -s 0 -d 2 -p pareto -e 300 -c 2 -i 42 -a 2 -x {0.1 3.0 15 ------- null}
+ -t 1.43876291350275 -s 0 -d 2 -p exp -e 800 -c 1 -i 43 -a 1 -x {0.0 5.0 27 ------- null}
- -t 1.43980665379534 -s 0 -d 2 -p pareto -e 300 -c 2 -i 33 -a 2 -x {0.1 3.0 10 ------- null}
h -t 1.43980665379534 -s 0 -d 2 -p pareto -e 300 -c 2 -i 33 -a 2 -x {0.1 3.0 -1 ------- null}
- -t 1.44162665379534 -s 2 -d 1 -p pareto -e 300 -c 2 -i 17 -a 2 -x {0.1 3.0 2 ------- null}
h -t 1.44162665379534 -s 2 -d 1 -p pareto -e 300 -c 2 -i 17 -a 2 -x {0.1 3.0 -1 ------- null}
r -t 1.44280665379534 -s 0 -d 2 -p exp -e 800 -c 1 -i 32 -a 1 -x {0.0 5.0 22 ------- null}
+ -t 1.44280665379534 -s 2 -d 1 -p exp -e 800 -c 1 -i 32 -a 1 -x {0.0 5.0 22 ------- null}
r -t 1.44362665379534 -s 2 -d 1 -p exp -e 800 -c 1 -i 16 -a 1 -x {0.0 5.0 14 ------- null}
+ -t 1.44362665379534 -s 1 -d 3 -p exp -e 800 -c 1 -i 16 -a 1 -x {0.0 5.0 14 ------- null}
- -t 1.44364665379534 -s 0 -d 2 -p pareto -e 300 -c 2 -i 34 -a 2 -x {0.1 3.0 11 ------- null}
h -t 1.44364665379534 -s 0 -d 2 -p pareto -e 300 -c 2 -i 34 -a 2 -x {0.1 3.0 -1 ------- null}
r -t 1.44664665379534 -s 0 -d 2 -p pareto -e 300 -c 2 -i 33 -a 2 -x {0.1 3.0 10 ------- null}
+ -t 1.44664665379534 -s 2 -d 1 -p pareto -e 300 -c 2 -i 33 -a 2 -x {0.1 3.0 10 ------- null}
- -t 1.44748665379534 -s 0 -d 2 -p pareto -e 300 -c 2 -i 35 -a 2 -x {0.1 3.0 12 ------- null}
h -t 1.44748665379534 -s 0 -d 2 -p pareto -e 300 -c 2 -i 35 -a 2 -x {0.1 3.0 -1 ------- null}